Job Start Time: Mon Jan 19 15:04:34 MST 2026
SLURM Job ID: 774500
SLURM Job Name: acetaldehyde
 Entering Gaussian System, Link 0=/opt/apps/Gaussian/G16C/g16/g16
 Initial command:
 /opt/apps/Gaussian/G16C/g16/l1.exe "/tmp/774500/Gau-745872.inp" -scrdir="/tmp/774500/"
 Entering Link 1 = /opt/apps/Gaussian/G16C/g16/l1.exe PID=    745873.
  
 Copyright (c) 1988-2019, Gaussian, Inc.  All Rights Reserved.
  
 This is part of the Gaussian(R) 16 program.  It is based on
 the Gaussian(R) 09 system (copyright 2009, Gaussian, Inc.),
 the Gaussian(R) 03 system (copyright 2003, Gaussian, Inc.),
 the Gaussian(R) 98 system (copyright 1998, Gaussian, Inc.),
 the Gaussian(R) 94 system (copyright 1995, Gaussian, Inc.),
 the Gaussian 92(TM) system (copyright 1992, Gaussian, Inc.),
 the Gaussian 90(TM) system (copyright 1990, Gaussian, Inc.),
 the Gaussian 88(TM) system (copyright 1988, Gaussian, Inc.),
 the Gaussian 86(TM) system (copyright 1986, Carnegie Mellon
 University), and the Gaussian 82(TM) system (copyright 1983,
 Carnegie Mellon University). Gaussian is a federally registered
 trademark of Gaussian, Inc.
  
 This software contains proprietary and confidential information,
 including trade secrets, belonging to Gaussian, Inc.
  
 This software is provided under written license and may be
 used, copied, transmitted, or stored only in accord with that
 written license.
  
 The following legend is applicable only to US Government
 contracts under FAR:
  
                    RESTRICTED RIGHTS LEGEND
  
 Use, reproduction and disclosure by the US Government is
 subject to restrictions as set forth in subparagraphs (a)
 and (c) of the Commercial Computer Software - Restricted
 Rights clause in FAR 52.227-19.
  
 Gaussian, Inc.
 340 Quinnipiac St., Bldg. 40, Wallingford CT 06492
  
  
 ---------------------------------------------------------------
 Warning -- This program may not be used in any manner that
 competes with the business of Gaussian, Inc. or will provide
 assistance to any competitor of Gaussian, Inc.  The licensee
 of this program is prohibited from giving any competitor of
 Gaussian, Inc. access to this program.  By using this program,
 the user acknowledges that Gaussian, Inc. is engaged in the
 business of creating and licensing software in the field of
 computational chemistry and represents and warrants to the
 licensee that it is not a competitor of Gaussian, Inc. and that
 it will not use this program in any manner prohibited above.
 ---------------------------------------------------------------
  

 Cite this work as:
 Gaussian 16, Revision C.01,
 M. J. Frisch, G. W. Trucks, H. B. Schlegel, G. E. Scuseria, 
 M. A. Robb, J. R. Cheeseman, G. Scalmani, V. Barone, 
 G. A. Petersson, H. Nakatsuji, X. Li, M. Caricato, A. V. Marenich, 
 J. Bloino, B. G. Janesko, R. Gomperts, B. Mennucci, H. P. Hratchian, 
 J. V. Ortiz, A. F. Izmaylov, J. L. Sonnenberg, D. Williams-Young, 
 F. Ding, F. Lipparini, F. Egidi, J. Goings, B. Peng, A. Petrone, 
 T. Henderson, D. Ranasinghe, V. G. Zakrzewski, J. Gao, N. Rega, 
 G. Zheng, W. Liang, M. Hada, M. Ehara, K. Toyota, R. Fukuda, 
 J. Hasegawa, M. Ishida, T. Nakajima, Y. Honda, O. Kitao, H. Nakai, 
 T. Vreven, K. Throssell, J. A. Montgomery, Jr., J. E. Peralta, 
 F. Ogliaro, M. J. Bearpark, J. J. Heyd, E. N. Brothers, K. N. Kudin, 
 V. N. Staroverov, T. A. Keith, R. Kobayashi, J. Normand, 
 K. Raghavachari, A. P. Rendell, J. C. Burant, S. S. Iyengar, 
 J. Tomasi, M. Cossi, J. M. Millam, M. Klene, C. Adamo, R. Cammi, 
 J. W. Ochterski, R. L. Martin, K. Morokuma, O. Farkas, 
 J. B. Foresman, and D. J. Fox, Gaussian, Inc., Wallingford CT, 2019.
 
 ******************************************
 Gaussian 16:  AS64L-G16RevC.01  3-Jul-2019
                19-Jan-2026 
 ******************************************
 %chk=acetaldehyde.chk
 %mem=72GB
 %nprocshared=16
 Will use up to   16 processors via shared memory.
 -----------------------
 # opt freq M062X/6-31G*
 -----------------------
 1/18=20,19=15,26=3,38=1/1,3;
 2/9=110,12=2,17=6,18=5,40=1/2;
 3/5=1,6=6,7=1,11=2,25=1,30=1,71=1,74=-55/1,2,3;
 4//1;
 5/5=2,38=5/2;
 6/7=2,8=2,9=2,10=2,28=1/1;
 7//1,2,3,16;
 1/18=20,19=15,26=3/3(2);
 2/9=110/2;
 99//99;
 2/9=110/2;
 3/5=1,6=6,7=1,11=2,25=1,30=1,71=1,74=-55/1,2,3;
 4/5=5,16=3,69=1/1;
 5/5=2,38=5/2;
 7//1,2,3,16;
 1/18=20,19=15,26=3/3(-5);
 2/9=110/2;
 6/7=2,8=2,9=2,10=2,19=2,28=1/1;
 99/9=1/99;
 ------------------------------------
 acetaldehyde created by GaussianPrep
 ------------------------------------
 Symbolic Z-matrix:
 Charge =  0 Multiplicity = 1
 C                     0.24033   0.41383   0. 
 O                     1.21931  -0.28868   0. 
 H                     0.34389   1.51867  0. 
 C                    -1.16822  -0.13556   0. 
 H                    -1.91748   0.65773   0.00007 
 H                    -1.30679  -0.76825  -0.88157 
 H                    -1.30675  -0.76836   0.88149 
 

 GradGradGradGradGradGradGradGradGradGradGradGradGradGradGradGradGradGrad
 Berny optimization.
 Initialization pass.
                           ----------------------------
                           !    Initial Parameters    !
                           ! (Angstroms and Degrees)  !
 --------------------------                            --------------------------
 ! Name  Definition              Value          Derivative Info.                !
 --------------------------------------------------------------------------------
 ! R1    R(1,2)                  1.205          estimate D2E/DX2                !
 ! R2    R(1,3)                  1.1097         estimate D2E/DX2                !
 ! R3    R(1,4)                  1.5119         estimate D2E/DX2                !
 ! R4    R(4,5)                  1.0912         estimate D2E/DX2                !
 ! R5    R(4,6)                  1.0939         estimate D2E/DX2                !
 ! R6    R(4,7)                  1.0939         estimate D2E/DX2                !
 ! A1    A(2,1,3)              120.3078         estimate D2E/DX2                !
 ! A2    A(2,1,4)              123.0297         estimate D2E/DX2                !
 ! A3    A(3,1,4)              116.6625         estimate D2E/DX2                !
 ! A4    A(1,4,5)              112.0574         estimate D2E/DX2                !
 ! A5    A(1,4,6)              109.1579         estimate D2E/DX2                !
 ! A6    A(1,4,7)              109.1581         estimate D2E/DX2                !
 ! A7    A(5,4,6)              109.484          estimate D2E/DX2                !
 ! A8    A(5,4,7)              109.4844         estimate D2E/DX2                !
 ! A9    A(6,4,7)              107.3842         estimate D2E/DX2                !
 ! D1    D(2,1,4,5)            179.9964         estimate D2E/DX2                !
 ! D2    D(2,1,4,6)            -58.5536         estimate D2E/DX2                !
 ! D3    D(2,1,4,7)             58.5459         estimate D2E/DX2                !
 ! D4    D(3,1,4,5)             -0.0037         estimate D2E/DX2                !
 ! D5    D(3,1,4,6)            121.4463         estimate D2E/DX2                !
 ! D6    D(3,1,4,7)           -121.4543         estimate D2E/DX2                !
 --------------------------------------------------------------------------------
 Trust Radius=3.00D-01 FncErr=1.00D-07 GrdErr=1.00D-06 EigMax=2.50D+02 EigMin=1.00D-04
 Number of steps in this run=     31 maximum allowed number of steps=    100.
 GradGradGradGradGradGradGradGradGradGradGradGradGradGradGradGradGradGrad

                          Input orientation:                          
 ---------------------------------------------------------------------
 Center     Atomic      Atomic             Coordinates (Angstroms)
 Number     Number       Type             X           Y           Z
 ---------------------------------------------------------------------
      1          6           0        0.240326    0.413829    0.000001
      2          8           0        1.219313   -0.288679    0.000000
      3          1           0        0.343887    1.518668   -0.000001
      4          6           0       -1.168223   -0.135556    0.000001
      5          1           0       -1.917481    0.657732    0.000065
      6          1           0       -1.306786   -0.768245   -0.881565
      7          1           0       -1.306745   -0.768357    0.881492
 ---------------------------------------------------------------------
                    Distance matrix (angstroms):
                    1          2          3          4          5
     1  C    0.000000
     2  O    1.204962   0.000000
     3  H    1.109682   2.008202   0.000000
     4  C    1.511898   2.392441   2.241190   0.000000
     5  H    2.171548   3.276457   2.419710   1.091189   0.000000
     6  H    2.137291   2.718146   2.954970   1.093917   1.784273
     7  H    2.137292   2.718104   2.955013   1.093916   1.784276
                    6          7
     6  H    0.000000
     7  H    1.763057   0.000000
 Stoichiometry    C2H4O
 Framework group  C1[X(C2H4O)]
 Deg. of freedom    15
 Full point group                 C1      NOp   1
 Largest Abelian subgroup         C1      NOp   1
 Largest concise Abelian subgroup C1      NOp   1
                         Standard orientation:                         
 ---------------------------------------------------------------------
 Center     Atomic      Atomic             Coordinates (Angstroms)
 Number     Number       Type             X           Y           Z
 ---------------------------------------------------------------------
      1          6           0       -0.240326    0.413829   -0.000001
      2          8           0       -1.219313   -0.288679    0.000000
      3          1           0       -0.343887    1.518668    0.000001
      4          6           0        1.168223   -0.135556   -0.000001
      5          1           0        1.917481    0.657732   -0.000065
      6          1           0        1.306786   -0.768245    0.881565
      7          1           0        1.306745   -0.768357   -0.881492
 ---------------------------------------------------------------------
 Rotational constants (GHZ):          55.6567814          10.2452961           9.1429131
 Standard basis: 6-31G(d) (6D, 7F)
 There are    53 symmetry adapted cartesian basis functions of A   symmetry.
 There are    53 symmetry adapted basis functions of A   symmetry.
    53 basis functions,   100 primitive gaussians,    53 cartesian basis functions
    12 alpha electrons       12 beta electrons
       nuclear repulsion energy        69.7082947883 Hartrees.
 NAtoms=    7 NActive=    7 NUniq=    7 SFac= 1.00D+00 NAtFMM=   60 NAOKFM=F Big=F
 Integral buffers will be    131072 words long.
 Raffenetti 2 integral format.
 Two-electron integral symmetry is turned on.
 One-electron integrals computed using PRISM.
 NBasis=    53 RedAO= T EigKep=  6.08D-03  NBF=    53
 NBsUse=    53 1.00D-06 EigRej= -1.00D+00 NBFU=    53
 ExpMin= 1.61D-01 ExpMax= 5.48D+03 ExpMxC= 8.25D+02 IAcc=3 IRadAn=         5 AccDes= 0.00D+00
 Harris functional with IExCor= 1009 and IRadAn=       5 diagonalized for initial guess.
 HarFok:  IExCor= 1009 AccDes= 0.00D+00 IRadAn=         5 IDoV= 1 UseB2=F ITyADJ=14
 ICtDFT=  3500011 ScaDFX=  1.000000  1.000000  1.000000  1.000000
 FoFCou: FMM=F IPFlag=           0 FMFlag=      100000 FMFlg1=           0
         NFxFlg=           0 DoJE=T BraDBF=F KetDBF=T FulRan=T
         wScrn=  0.000000 ICntrl=       500 IOpCl=  0 I1Cent=   200000004 NGrid=           0
         NMat0=    1 NMatS0=      1 NMatT0=    0 NMatD0=    1 NMtDS0=    0 NMtDT0=    0
 Petite list used in FoFCou.
 Keep R1 ints in memory in canonical form, NReq=15066271.
 Requested convergence on RMS density matrix=1.00D-08 within 128 cycles.
 Requested convergence on MAX density matrix=1.00D-06.
 Requested convergence on             energy=1.00D-06.
 No special actions if energy rises.
 Integral accuracy reduced to 1.0D-05 until final iterations.
 Initial convergence to 1.0D-05 achieved.  Increase integral accuracy.
 SCF Done:  E(RM062X) =  -153.751194873     A.U. after   14 cycles
            NFock= 14  Conv=0.28D-08     -V/T= 2.0083

 **********************************************************************

            Population analysis using the SCF Density.

 **********************************************************************

 Orbital symmetries:
       Occupied  (A) (A) (A) (A) (A) (A) (A) (A) (A) (A) (A) (A)
       Virtual   (A) (A) (A) (A) (A) (A) (A) (A) (A) (A) (A) (A)
                 (A) (A) (A) (A) (A) (A) (A) (A) (A) (A) (A) (A)
                 (A) (A) (A) (A) (A) (A) (A) (A) (A) (A) (A) (A)
                 (A) (A) (A) (A) (A)
 The electronic state is 1-A.
 Alpha  occ. eigenvalues --  -19.64219 -10.64139 -10.55353  -1.17070  -0.84523
 Alpha  occ. eigenvalues --   -0.66529  -0.55515  -0.51344  -0.50954  -0.46444
 Alpha  occ. eigenvalues --   -0.42711  -0.32506
 Alpha virt. eigenvalues --    0.02528   0.15710   0.16609   0.21990   0.22304
 Alpha virt. eigenvalues --    0.29911   0.31533   0.57503   0.58491   0.62442
 Alpha virt. eigenvalues --    0.65231   0.73830   0.78733   0.83436   0.91084
 Alpha virt. eigenvalues --    0.91883   0.92117   0.99305   1.00712   1.07478
 Alpha virt. eigenvalues --    1.15772   1.25270   1.44881   1.50101   1.57910
 Alpha virt. eigenvalues --    1.76105   1.85555   1.86308   1.88742   2.09218
 Alpha virt. eigenvalues --    2.19092   2.26397   2.28523   2.37996   2.58490
 Alpha virt. eigenvalues --    2.64755   2.89151   2.99729   3.80696   4.10509
 Alpha virt. eigenvalues --    4.36893
          Condensed to atoms (all electrons):
               1          2          3          4          5          6
     1  C    4.592150   0.556449   0.367195   0.308661  -0.017066  -0.021433
     2  O    0.556449   7.962137  -0.053763  -0.080044   0.003409  -0.000796
     3  H    0.367195  -0.053763   0.651350  -0.107925   0.005187   0.003793
     4  C    0.308661  -0.080044  -0.107925   5.362298   0.345775   0.367287
     5  H   -0.017066   0.003409   0.005187   0.345775   0.535217  -0.022353
     6  H   -0.021433  -0.000796   0.003793   0.367287  -0.022353   0.484337
     7  H   -0.021433  -0.000795   0.003793   0.367287  -0.022353  -0.016789
               7
     1  C   -0.021433
     2  O   -0.000795
     3  H    0.003793
     4  C    0.367287
     5  H   -0.022353
     6  H   -0.016789
     7  H    0.484337
 Mulliken charges:
               1
     1  C    0.235476
     2  O   -0.386598
     3  H    0.130369
     4  C   -0.563339
     5  H    0.172184
     6  H    0.205954
     7  H    0.205954
 Sum of Mulliken charges =  -0.00000
 Mulliken charges with hydrogens summed into heavy atoms:
               1
     1  C    0.365846
     2  O   -0.386598
     4  C    0.020753
 Electronic spatial extent (au):  <R**2>=            166.2935
 Charge=             -0.0000 electrons
 Dipole moment (field-independent basis, Debye):
    X=              2.3581    Y=              1.0128    Z=              0.0000  Tot=              2.5664
 Quadrupole moment (field-independent basis, Debye-Ang):
   XX=            -20.6922   YY=            -17.6625   ZZ=            -17.6012
   XY=             -1.1216   XZ=              0.0000   YZ=             -0.0000
 Traceless Quadrupole moment (field-independent basis, Debye-Ang):
   XX=             -2.0402   YY=              0.9895   ZZ=              1.0508
   XY=             -1.1216   XZ=              0.0000   YZ=             -0.0000
 Octapole moment (field-independent basis, Debye-Ang**2):
  XXX=              0.2095  YYY=             -0.0237  ZZZ=              0.0002  XYY=             -0.6958
  XXY=              0.6020  XXZ=              0.0000  XZZ=             -1.1392  YZZ=             -1.3041
  YYZ=             -0.0001  XYZ=             -0.0000
 Hexadecapole moment (field-independent basis, Debye-Ang**3):
 XXXX=           -146.5112 YYYY=            -41.8143 ZZZZ=            -21.8352 XXXY=              2.1438
 XXXZ=             -0.0000 YYYX=              0.4200 YYYZ=              0.0001 ZZZX=              0.0003
 ZZZY=             -0.0001 XXYY=            -29.6223 XXZZ=            -26.5948 YYZZ=            -10.2572
 XXYZ=             -0.0001 YYXZ=             -0.0002 ZZXY=             -0.7584
 N-N= 6.970829478833D+01 E-N=-4.985052861014D+02  KE= 1.524859343676D+02
 Calling FoFJK, ICntrl=      2127 FMM=F ISym2X=0 I1Cent= 0 IOpClX= 0 NMat=1 NMatS=1 NMatT=0.
 ***** Axes restored to original set *****
 -------------------------------------------------------------------
 Center     Atomic                   Forces (Hartrees/Bohr)
 Number     Number              X              Y              Z
 -------------------------------------------------------------------
      1        6          -0.000023995    0.000008677    0.000000019
      2        8           0.000010456   -0.000007541    0.000000103
      3        1          -0.000002043    0.000001114   -0.000000160
      4        6           0.000027180   -0.000009956    0.000000098
      5        1          -0.000002932    0.000007617    0.000000009
      6        1          -0.000004346    0.000000174   -0.000021378
      7        1          -0.000004320   -0.000000086    0.000021309
 -------------------------------------------------------------------
 Cartesian Forces:  Max     0.000027180 RMS     0.000011288

 GradGradGradGradGradGradGradGradGradGradGradGradGradGradGradGradGradGrad
 Berny optimization.
 FormGI is forming the generalized inverse of G from B-inverse, IUseBI=4.
 Internal  Forces:  Max     0.000017628 RMS     0.000008387
 Search for a local minimum.
 Step number   1 out of a maximum of   31
 All quantities printed in internal units (Hartrees-Bohrs-Radians)
 Mixed Optimization -- En-DIIS/RFO-DIIS
 Second derivative matrix not updated -- first step.
 ITU=  0
     Eigenvalues ---    0.00609   0.00609   0.07083   0.07536   0.16000
     Eigenvalues ---    0.16000   0.16000   0.16000   0.22000   0.31161
     Eigenvalues ---    0.32634   0.34364   0.34364   0.34676   1.02369
 RFO step:  Lambda= 0.00000000D+00 EMin= 6.08565915D-03
 Linear search not attempted -- first point.
 Iteration  1 RMS(Cart)=  0.00005911 RMS(Int)=  0.00000000
 Iteration  2 RMS(Cart)=  0.00000000 RMS(Int)=  0.00000000
 Variable       Old X    -DE/DX   Delta X   Delta X   Delta X     New X
                                 (Linear)    (Quad)   (Total)
    R1        2.27705   0.00001   0.00000   0.00001   0.00001   2.27706
    R2        2.09700   0.00000   0.00000   0.00000   0.00000   2.09700
    R3        2.85707  -0.00001   0.00000  -0.00004  -0.00004   2.85703
    R4        2.06205   0.00001   0.00000   0.00002   0.00002   2.06207
    R5        2.06720   0.00002   0.00000   0.00005   0.00005   2.06725
    R6        2.06720   0.00002   0.00000   0.00005   0.00005   2.06725
    A1        2.09977   0.00000   0.00000   0.00001   0.00001   2.09978
    A2        2.14727  -0.00000   0.00000  -0.00000  -0.00000   2.14727
    A3        2.03614  -0.00000   0.00000  -0.00001  -0.00001   2.03614
    A4        1.95577  -0.00001   0.00000  -0.00009  -0.00009   1.95568
    A5        1.90517   0.00000   0.00000   0.00002   0.00002   1.90519
    A6        1.90517   0.00000   0.00000   0.00002   0.00002   1.90519
    A7        1.91086  -0.00000   0.00000  -0.00004  -0.00004   1.91081
    A8        1.91086  -0.00000   0.00000  -0.00004  -0.00004   1.91082
    A9        1.87421   0.00001   0.00000   0.00014   0.00014   1.87435
    D1        3.14153  -0.00000   0.00000  -0.00001  -0.00001   3.14152
    D2       -1.02195  -0.00001   0.00000  -0.00011  -0.00011  -1.02206
    D3        1.02182   0.00001   0.00000   0.00009   0.00009   1.02190
    D4       -0.00007  -0.00000   0.00000  -0.00002  -0.00002  -0.00008
    D5        2.11964  -0.00001   0.00000  -0.00011  -0.00011   2.11952
    D6       -2.11978   0.00001   0.00000   0.00008   0.00008  -2.11970
         Item               Value     Threshold  Converged?
 Maximum Force            0.000018     0.000450     YES
 RMS     Force            0.000008     0.000300     YES
 Maximum Displacement     0.000132     0.001800     YES
 RMS     Displacement     0.000059     0.001200     YES
 Predicted change in Energy=-4.102964D-09
 Optimization completed.
    -- Stationary point found.
                           ----------------------------
                           !   Optimized Parameters   !
                           ! (Angstroms and Degrees)  !
 --------------------------                            --------------------------
 ! Name  Definition              Value          Derivative Info.                !
 --------------------------------------------------------------------------------
 ! R1    R(1,2)                  1.205          -DE/DX =    0.0                 !
 ! R2    R(1,3)                  1.1097         -DE/DX =    0.0                 !
 ! R3    R(1,4)                  1.5119         -DE/DX =    0.0                 !
 ! R4    R(4,5)                  1.0912         -DE/DX =    0.0                 !
 ! R5    R(4,6)                  1.0939         -DE/DX =    0.0                 !
 ! R6    R(4,7)                  1.0939         -DE/DX =    0.0                 !
 ! A1    A(2,1,3)              120.3078         -DE/DX =    0.0                 !
 ! A2    A(2,1,4)              123.0297         -DE/DX =    0.0                 !
 ! A3    A(3,1,4)              116.6625         -DE/DX =    0.0                 !
 ! A4    A(1,4,5)              112.0574         -DE/DX =    0.0                 !
 ! A5    A(1,4,6)              109.1579         -DE/DX =    0.0                 !
 ! A6    A(1,4,7)              109.1581         -DE/DX =    0.0                 !
 ! A7    A(5,4,6)              109.484          -DE/DX =    0.0                 !
 ! A8    A(5,4,7)              109.4844         -DE/DX =    0.0                 !
 ! A9    A(6,4,7)              107.3842         -DE/DX =    0.0                 !
 ! D1    D(2,1,4,5)            179.9964         -DE/DX =    0.0                 !
 ! D2    D(2,1,4,6)            -58.5536         -DE/DX =    0.0                 !
 ! D3    D(2,1,4,7)             58.5459         -DE/DX =    0.0                 !
 ! D4    D(3,1,4,5)             -0.0037         -DE/DX =    0.0                 !
 ! D5    D(3,1,4,6)            121.4463         -DE/DX =    0.0                 !
 ! D6    D(3,1,4,7)           -121.4543         -DE/DX =    0.0                 !
 --------------------------------------------------------------------------------
 GradGradGradGradGradGradGradGradGradGradGradGradGradGradGradGradGradGrad

                          Input orientation:                          
 ---------------------------------------------------------------------
 Center     Atomic      Atomic             Coordinates (Angstroms)
 Number     Number       Type             X           Y           Z
 ---------------------------------------------------------------------
      1          6           0        0.240326    0.413829    0.000001
      2          8           0        1.219313   -0.288679    0.000000
      3          1           0        0.343887    1.518668   -0.000001
      4          6           0       -1.168223   -0.135556    0.000001
      5          1           0       -1.917481    0.657732    0.000065
      6          1           0       -1.306786   -0.768245   -0.881565
      7          1           0       -1.306745   -0.768357    0.881492
 ---------------------------------------------------------------------
                    Distance matrix (angstroms):
                    1          2          3          4          5
     1  C    0.000000
     2  O    1.204962   0.000000
     3  H    1.109682   2.008202   0.000000
     4  C    1.511898   2.392441   2.241190   0.000000
     5  H    2.171548   3.276457   2.419710   1.091189   0.000000
     6  H    2.137291   2.718146   2.954970   1.093917   1.784273
     7  H    2.137292   2.718104   2.955013   1.093916   1.784276
                    6          7
     6  H    0.000000
     7  H    1.763057   0.000000
 Stoichiometry    C2H4O
 Framework group  C1[X(C2H4O)]
 Deg. of freedom    15
 Full point group                 C1      NOp   1
 Largest Abelian subgroup         C1      NOp   1
 Largest concise Abelian subgroup C1      NOp   1
                         Standard orientation:                         
 ---------------------------------------------------------------------
 Center     Atomic      Atomic             Coordinates (Angstroms)
 Number     Number       Type             X           Y           Z
 ---------------------------------------------------------------------
      1          6           0       -0.240326    0.413829   -0.000001
      2          8           0       -1.219313   -0.288679    0.000000
      3          1           0       -0.343887    1.518668    0.000001
      4          6           0        1.168223   -0.135556   -0.000001
      5          1           0        1.917481    0.657732   -0.000065
      6          1           0        1.306786   -0.768245    0.881565
      7          1           0        1.306745   -0.768357   -0.881492
 ---------------------------------------------------------------------
 Rotational constants (GHZ):          55.6567814          10.2452961           9.1429131
 Unable to Open any file for archive entry.
 1\1\GINC-NODE18\FOpt\RM062X\6-31G(d)\C2H4O1\RPATON\19-Jan-2026\0\\# op
 t freq M062X/6-31G*\\acetaldehyde created by GaussianPrep\\0,1\C,0.240
 326,0.413829,0.000001\O,1.219313,-0.288679,0.\H,0.343887,1.518668,-0.0
 00001\C,-1.168223,-0.135556,0.000001\H,-1.917481,0.657732,0.000065\H,-
 1.306786,-0.768245,-0.881565\H,-1.306745,-0.768357,0.881492\\Version=A
 S64L-G16RevC.01\State=1-A\HF=-153.7511949\RMSD=2.815e-09\RMSF=1.129e-0
 5\Dipole=-0.9277544,0.3984749,-0.0000061\Quadrupole=-1.5168671,0.73565
 31,0.781214,0.8339024,0.0000193,0.0000002\PG=C01 [X(C2H4O1)]\\@
 The archive entry for this job was punched.


 IF YOU WISH TO UNDERSTAND THE FRAGRANCE OF THE ROSE, 
 OR THE TENACITY OF THE OAK; 
 IF YOU ARE NOT SATISFIED UNTIL YOU KNOW THE SECRET PATHS 
 BY WHICH THE SUNSHINE AND THE AIR ACHIEVE THESE WONDERS; 
 IF YOU WISH TO SEE THE PATTERN WHICH UNDERLIES ONE LARGE FIELD OF 
 HUMAN EXPERIENCE AND HUMAN MEASUREMENT, THEN TAKE UP CHEMISTRY.

                                         -- C. A. COULSON, 1973.
 Job cpu time:       0 days  0 hours  0 minutes 15.9 seconds.
 Elapsed time:       0 days  0 hours  0 minutes  1.3 seconds.
 File lengths (MBytes):  RWF=      6 Int=      0 D2E=      0 Chk=      2 Scr=      1
 Normal termination of Gaussian 16 at Mon Jan 19 15:04:36 2026.
 Link1:  Proceeding to internal job step number  2.
 --------------------------------------------------------------------
 #N Geom=AllCheck Guess=TCheck SCRF=Check GenChk RM062X/6-31G(d) Freq
 --------------------------------------------------------------------
 1/10=4,29=7,30=1,38=1,40=1/1,3;
 2/12=2,40=1/2;
 3/5=1,6=6,7=1,11=2,14=-4,25=1,30=1,70=2,71=2,74=-55,116=1,140=1/1,2,3;
 4/5=101/1;
 5/5=2,38=6,98=1/2;
 8/6=4,10=90,11=11/1;
 11/6=1,8=1,9=11,15=111,16=1/1,2,10;
 10/6=1/2;
 6/7=2,8=2,9=2,10=2,28=1/1;
 7/8=1,10=1,25=1/1,2,3,16;
 1/10=4,30=1/3;
 99//99;
 Structure from the checkpoint file:  "acetaldehyde.chk"
 ------------------------------------
 acetaldehyde created by GaussianPrep
 ------------------------------------
 Charge =  0 Multiplicity = 1
 Redundant internal coordinates found in file.  (old form).
 C,0,0.240326,0.413829,0.000001
 O,0,1.219313,-0.288679,0.
 H,0,0.343887,1.518668,-0.000001
 C,0,-1.168223,-0.135556,0.000001
 H,0,-1.917481,0.657732,0.000065
 H,0,-1.306786,-0.768245,-0.881565
 H,0,-1.306745,-0.768357,0.881492
 Recover connectivity data from disk.

 GradGradGradGradGradGradGradGradGradGradGradGradGradGradGradGradGradGrad
 Berny optimization.
 Initialization pass.
                           ----------------------------
                           !    Initial Parameters    !
                           ! (Angstroms and Degrees)  !
 --------------------------                            --------------------------
 ! Name  Definition              Value          Derivative Info.                !
 --------------------------------------------------------------------------------
 ! R1    R(1,2)                  1.205          calculate D2E/DX2 analytically  !
 ! R2    R(1,3)                  1.1097         calculate D2E/DX2 analytically  !
 ! R3    R(1,4)                  1.5119         calculate D2E/DX2 analytically  !
 ! R4    R(4,5)                  1.0912         calculate D2E/DX2 analytically  !
 ! R5    R(4,6)                  1.0939         calculate D2E/DX2 analytically  !
 ! R6    R(4,7)                  1.0939         calculate D2E/DX2 analytically  !
 ! A1    A(2,1,3)              120.3078         calculate D2E/DX2 analytically  !
 ! A2    A(2,1,4)              123.0297         calculate D2E/DX2 analytically  !
 ! A3    A(3,1,4)              116.6625         calculate D2E/DX2 analytically  !
 ! A4    A(1,4,5)              112.0574         calculate D2E/DX2 analytically  !
 ! A5    A(1,4,6)              109.1579         calculate D2E/DX2 analytically  !
 ! A6    A(1,4,7)              109.1581         calculate D2E/DX2 analytically  !
 ! A7    A(5,4,6)              109.484          calculate D2E/DX2 analytically  !
 ! A8    A(5,4,7)              109.4844         calculate D2E/DX2 analytically  !
 ! A9    A(6,4,7)              107.3842         calculate D2E/DX2 analytically  !
 ! D1    D(2,1,4,5)            179.9964         calculate D2E/DX2 analytically  !
 ! D2    D(2,1,4,6)            -58.5536         calculate D2E/DX2 analytically  !
 ! D3    D(2,1,4,7)             58.5459         calculate D2E/DX2 analytically  !
 ! D4    D(3,1,4,5)             -0.0037         calculate D2E/DX2 analytically  !
 ! D5    D(3,1,4,6)            121.4463         calculate D2E/DX2 analytically  !
 ! D6    D(3,1,4,7)           -121.4543         calculate D2E/DX2 analytically  !
 --------------------------------------------------------------------------------
 Trust Radius=3.00D-01 FncErr=1.00D-07 GrdErr=1.00D-07 EigMax=2.50D+02 EigMin=1.00D-04
 Number of steps in this run=      2 maximum allowed number of steps=      2.
 GradGradGradGradGradGradGradGradGradGradGradGradGradGradGradGradGradGrad

                          Input orientation:                          
 ---------------------------------------------------------------------
 Center     Atomic      Atomic             Coordinates (Angstroms)
 Number     Number       Type             X           Y           Z
 ---------------------------------------------------------------------
      1          6           0        0.240326    0.413829    0.000001
      2          8           0        1.219313   -0.288679    0.000000
      3          1           0        0.343887    1.518668   -0.000001
      4          6           0       -1.168223   -0.135556    0.000001
      5          1           0       -1.917481    0.657732    0.000065
      6          1           0       -1.306786   -0.768245   -0.881565
      7          1           0       -1.306745   -0.768357    0.881492
 ---------------------------------------------------------------------
                    Distance matrix (angstroms):
                    1          2          3          4          5
     1  C    0.000000
     2  O    1.204962   0.000000
     3  H    1.109682   2.008202   0.000000
     4  C    1.511898   2.392441   2.241190   0.000000
     5  H    2.171548   3.276457   2.419710   1.091189   0.000000
     6  H    2.137291   2.718146   2.954970   1.093917   1.784273
     7  H    2.137292   2.718104   2.955013   1.093916   1.784276
                    6          7
     6  H    0.000000
     7  H    1.763057   0.000000
 Stoichiometry    C2H4O
 Framework group  C1[X(C2H4O)]
 Deg. of freedom    15
 Full point group                 C1      NOp   1
 Largest Abelian subgroup         C1      NOp   1
 Largest concise Abelian subgroup C1      NOp   1
                         Standard orientation:                         
 ---------------------------------------------------------------------
 Center     Atomic      Atomic             Coordinates (Angstroms)
 Number     Number       Type             X           Y           Z
 ---------------------------------------------------------------------
      1          6           0       -0.240326    0.413829   -0.000001
      2          8           0       -1.219313   -0.288679    0.000000
      3          1           0       -0.343887    1.518668    0.000001
      4          6           0        1.168223   -0.135556   -0.000001
      5          1           0        1.917481    0.657732   -0.000065
      6          1           0        1.306786   -0.768245    0.881565
      7          1           0        1.306745   -0.768357   -0.881492
 ---------------------------------------------------------------------
 Rotational constants (GHZ):          55.6567814          10.2452961           9.1429131
 Standard basis: 6-31G(d) (6D, 7F)
 There are    53 symmetry adapted cartesian basis functions of A   symmetry.
 There are    53 symmetry adapted basis functions of A   symmetry.
    53 basis functions,   100 primitive gaussians,    53 cartesian basis functions
    12 alpha electrons       12 beta electrons
       nuclear repulsion energy        69.7082947883 Hartrees.
 NAtoms=    7 NActive=    7 NUniq=    7 SFac= 1.00D+00 NAtFMM=   60 NAOKFM=F Big=F
 Integral buffers will be    131072 words long.
 Raffenetti 2 integral format.
 Two-electron integral symmetry is turned on.
 One-electron integrals computed using PRISM.
 NBasis=    53 RedAO= T EigKep=  6.08D-03  NBF=    53
 NBsUse=    53 1.00D-06 EigRej= -1.00D+00 NBFU=    53
 Initial guess from the checkpoint file:  "acetaldehyde.chk"
 B after Tr=     0.000000    0.000000   -0.000000
         Rot=    1.000000    0.000000    0.000000   -0.000000 Ang=   0.00 deg.
 Keep R1 ints in memory in canonical form, NReq=15066271.
 Requested convergence on RMS density matrix=1.00D-08 within 128 cycles.
 Requested convergence on MAX density matrix=1.00D-06.
 Requested convergence on             energy=1.00D-06.
 No special actions if energy rises.
 SCF Done:  E(RM062X) =  -153.751194873     A.U. after    1 cycles
            NFock=  1  Conv=0.86D-09     -V/T= 2.0083
 DoSCS=F DFT=T ScalE2(SS,OS)=  1.000000  1.000000
 Range of M.O.s used for correlation:     1    53
 NBasis=    53 NAE=    12 NBE=    12 NFC=     0 NFV=     0
 NROrb=     53 NOA=    12 NOB=    12 NVA=    41 NVB=    41
 Symmetrizing basis deriv contribution to polar:
 IMax=3 JMax=2 DiffMx= 0.00D+00
 G2DrvN: will do     8 centers at a time, making    1 passes.
 Calling FoFCou, ICntrl=  3107 FMM=F I1Cent=   0 AccDes= 0.00D+00.
 End of G2Drv F.D. properties file   721 does not exist.
 End of G2Drv F.D. properties file   722 does not exist.
 End of G2Drv F.D. properties file   788 does not exist.
          IDoAtm=1111111
          Differentiating once with respect to electric field.
                with respect to dipole field.
          Differentiating once with respect to nuclear coordinates.
 Keep R1 ints in memory in canonical form, NReq=15016613.
          There are    24 degrees of freedom in the 1st order CPHF.  IDoFFX=6 NUNeed=     3.
     21 vectors produced by pass  0 Test12= 2.05D-15 4.17D-09 XBig12= 1.26D+01 2.31D+00.
 AX will form    21 AO Fock derivatives at one time.
     21 vectors produced by pass  1 Test12= 2.05D-15 4.17D-09 XBig12= 1.74D+00 3.90D-01.
     21 vectors produced by pass  2 Test12= 2.05D-15 4.17D-09 XBig12= 2.48D-02 3.93D-02.
     21 vectors produced by pass  3 Test12= 2.05D-15 4.17D-09 XBig12= 1.39D-04 3.28D-03.
     21 vectors produced by pass  4 Test12= 2.05D-15 4.17D-09 XBig12= 4.96D-07 2.23D-04.
     19 vectors produced by pass  5 Test12= 2.05D-15 4.17D-09 XBig12= 1.20D-09 6.85D-06.
      5 vectors produced by pass  6 Test12= 2.05D-15 4.17D-09 XBig12= 2.31D-12 3.26D-07.
      1 vectors produced by pass  7 Test12= 2.05D-15 4.17D-09 XBig12= 4.20D-15 1.99D-08.
 InvSVY:  IOpt=1 It=  1 EMax= 6.46D-16
 Solved reduced A of dimension   130 with    24 vectors.
 Isotropic polarizability for W=    0.000000       23.38 Bohr**3.
 End of Minotr F.D. properties file   721 does not exist.
 End of Minotr F.D. properties file   722 does not exist.
 End of Minotr F.D. properties file   788 does not exist.

 **********************************************************************

            Population analysis using the SCF Density.

 **********************************************************************

 Orbital symmetries:
       Occupied  (A) (A) (A) (A) (A) (A) (A) (A) (A) (A) (A) (A)
       Virtual   (A) (A) (A) (A) (A) (A) (A) (A) (A) (A) (A) (A)
                 (A) (A) (A) (A) (A) (A) (A) (A) (A) (A) (A) (A)
                 (A) (A) (A) (A) (A) (A) (A) (A) (A) (A) (A) (A)
                 (A) (A) (A) (A) (A)
 The electronic state is 1-A.
 Alpha  occ. eigenvalues --  -19.64219 -10.64139 -10.55353  -1.17070  -0.84523
 Alpha  occ. eigenvalues --   -0.66529  -0.55515  -0.51344  -0.50954  -0.46444
 Alpha  occ. eigenvalues --   -0.42711  -0.32506
 Alpha virt. eigenvalues --    0.02528   0.15710   0.16609   0.21990   0.22304
 Alpha virt. eigenvalues --    0.29911   0.31533   0.57503   0.58491   0.62442
 Alpha virt. eigenvalues --    0.65231   0.73830   0.78733   0.83436   0.91084
 Alpha virt. eigenvalues --    0.91883   0.92117   0.99305   1.00712   1.07478
 Alpha virt. eigenvalues --    1.15772   1.25270   1.44881   1.50101   1.57910
 Alpha virt. eigenvalues --    1.76105   1.85555   1.86308   1.88742   2.09218
 Alpha virt. eigenvalues --    2.19092   2.26397   2.28523   2.37996   2.58490
 Alpha virt. eigenvalues --    2.64755   2.89151   2.99729   3.80696   4.10509
 Alpha virt. eigenvalues --    4.36893
          Condensed to atoms (all electrons):
               1          2          3          4          5          6
     1  C    4.592150   0.556449   0.367195   0.308661  -0.017066  -0.021433
     2  O    0.556449   7.962138  -0.053763  -0.080044   0.003409  -0.000796
     3  H    0.367195  -0.053763   0.651350  -0.107925   0.005187   0.003793
     4  C    0.308661  -0.080044  -0.107925   5.362298   0.345775   0.367287
     5  H   -0.017066   0.003409   0.005187   0.345775   0.535217  -0.022353
     6  H   -0.021433  -0.000796   0.003793   0.367287  -0.022353   0.484337
     7  H   -0.021433  -0.000795   0.003793   0.367287  -0.022353  -0.016789
               7
     1  C   -0.021433
     2  O   -0.000795
     3  H    0.003793
     4  C    0.367287
     5  H   -0.022353
     6  H   -0.016789
     7  H    0.484337
 Mulliken charges:
               1
     1  C    0.235476
     2  O   -0.386598
     3  H    0.130369
     4  C   -0.563339
     5  H    0.172184
     6  H    0.205954
     7  H    0.205954
 Sum of Mulliken charges =  -0.00000
 Mulliken charges with hydrogens summed into heavy atoms:
               1
     1  C    0.365846
     2  O   -0.386598
     4  C    0.020753
 APT charges:
               1
     1  C    0.779706
     2  O   -0.637271
     3  H   -0.081475
     4  C   -0.123800
     5  H    0.003532
     6  H    0.029654
     7  H    0.029653
 Sum of APT charges =   0.00000
 APT charges with hydrogens summed into heavy atoms:
               1
     1  C    0.698232
     2  O   -0.637271
     4  C   -0.060961
 Electronic spatial extent (au):  <R**2>=            166.2935
 Charge=             -0.0000 electrons
 Dipole moment (field-independent basis, Debye):
    X=              2.3581    Y=              1.0128    Z=              0.0000  Tot=              2.5664
 Quadrupole moment (field-independent basis, Debye-Ang):
   XX=            -20.6922   YY=            -17.6625   ZZ=            -17.6012
   XY=             -1.1216   XZ=              0.0000   YZ=             -0.0000
 Traceless Quadrupole moment (field-independent basis, Debye-Ang):
   XX=             -2.0402   YY=              0.9895   ZZ=              1.0508
   XY=             -1.1216   XZ=              0.0000   YZ=             -0.0000
 Octapole moment (field-independent basis, Debye-Ang**2):
  XXX=              0.2095  YYY=             -0.0237  ZZZ=              0.0002  XYY=             -0.6958
  XXY=              0.6020  XXZ=              0.0000  XZZ=             -1.1392  YZZ=             -1.3041
  YYZ=             -0.0001  XYZ=             -0.0000
 Hexadecapole moment (field-independent basis, Debye-Ang**3):
 XXXX=           -146.5112 YYYY=            -41.8143 ZZZZ=            -21.8352 XXXY=              2.1438
 XXXZ=             -0.0000 YYYX=              0.4200 YYYZ=              0.0001 ZZZX=              0.0003
 ZZZY=             -0.0001 XXYY=            -29.6223 XXZZ=            -26.5948 YYZZ=            -10.2572
 XXYZ=             -0.0001 YYXZ=             -0.0002 ZZXY=             -0.7584
 N-N= 6.970829478833D+01 E-N=-4.985052865991D+02  KE= 1.524859345789D+02
  Exact polarizability:      27.794       1.492      25.105       0.000      -0.000      17.251
 Approx polarizability:      31.547       4.885      28.379       0.000      -0.000      19.685
 Calling FoFJK, ICntrl=    100127 FMM=F ISym2X=0 I1Cent= 0 IOpClX= 0 NMat=1 NMatS=1 NMatT=0.
 Full mass-weighted force constant matrix:
 Low frequencies --- -164.8066  -25.0053   -9.6160   -0.0013   -0.0010   -0.0008
 Low frequencies ---    2.9133  507.9671  761.1557
 ******    1 imaginary frequencies (negative Signs) ****** 
 Diagonal vibrational polarizability:
        2.8539379       1.8497553       7.5707819
 Harmonic frequencies (cm**-1), IR intensities (KM/Mole), Raman scattering
 activities (A**4/AMU), depolarization ratios for plane and unpolarized
 incident light, reduced masses (AMU), force constants (mDyne/A),
 and normal coordinates:
                      1                      2                      3
                      A                      A                      A
 Frequencies --   -164.6818               507.9671               761.1498
 Red. masses --      1.1913                 2.6617                 1.1728
 Frc consts  --      0.0190                 0.4046                 0.4003
 IR Inten    --      7.4156                13.6476                 2.0294
  Atom  AN      X      Y      Z        X      Y      Z        X      Y      Z
     1   6    -0.00   0.00  -0.09    -0.02   0.20   0.00     0.00  -0.00  -0.09
     2   8     0.00  -0.00   0.07     0.21  -0.10  -0.00     0.00   0.00   0.04
     3   1    -0.00   0.00  -0.41    -0.21   0.18   0.00     0.00  -0.00   0.58
     4   6    -0.00   0.00   0.02    -0.18  -0.03  -0.00    -0.00   0.00  -0.07
     5   1     0.00   0.00   0.52     0.22  -0.41  -0.00     0.00  -0.00   0.29
     6   1    -0.21  -0.41  -0.25    -0.53  -0.12  -0.01    -0.47   0.19   0.15
     7   1     0.21   0.41  -0.25    -0.53  -0.12   0.01     0.47  -0.19   0.15
                      4                      5                      6
                      A                      A                      A
 Frequencies --    952.1134              1115.6721              1147.0025
 Red. masses --      2.1851                 1.9956                 1.7207
 Frc consts  --      1.1671                 1.4635                 1.3338
 IR Inten    --      8.9872                39.3401                 1.2175
  Atom  AN      X      Y      Z        X      Y      Z        X      Y      Z
     1   6    -0.14   0.10  -0.00     0.12  -0.18   0.00    -0.00   0.00   0.21
     2   8    -0.09  -0.04   0.00    -0.05   0.02  -0.00     0.00  -0.00  -0.04
     3   1    -0.39   0.07   0.00     0.18  -0.18  -0.00    -0.00   0.00  -0.69
     4   6     0.25   0.00  -0.00    -0.01   0.19  -0.00     0.00  -0.00  -0.14
     5   1     0.71  -0.43  -0.00     0.40  -0.23  -0.00     0.00   0.00   0.27
     6   1    -0.06  -0.15  -0.05    -0.55  -0.06  -0.09    -0.35   0.24   0.10
     7   1    -0.06  -0.15   0.05    -0.55  -0.06   0.09     0.35  -0.24   0.10
                      7                      8                      9
                      A                      A                      A
 Frequencies --   1399.7430              1454.7900              1501.0743
 Red. masses --      1.2161                 1.2195                 1.0567
 Frc consts  --      1.4038                 1.5207                 1.4028
 IR Inten    --     10.5946                20.9376                11.3827
  Atom  AN      X      Y      Z        X      Y      Z        X      Y      Z
     1   6    -0.02   0.01  -0.00    -0.06   0.06   0.00     0.02  -0.02  -0.00
     2   8    -0.00  -0.02   0.00    -0.03  -0.07  -0.00    -0.01  -0.00   0.00
     3   1     0.38   0.05   0.00     0.91   0.18  -0.00     0.05  -0.02  -0.00
     4   6    -0.11   0.08  -0.00     0.06  -0.01   0.00    -0.05  -0.03  -0.00
     5   1     0.32  -0.32   0.00    -0.07   0.12  -0.00     0.34  -0.38   0.00
     6   1     0.43  -0.21  -0.28    -0.19   0.07   0.09     0.12   0.49   0.33
     7   1     0.43  -0.21   0.28    -0.19   0.07  -0.09     0.12   0.49  -0.33
                     10                     11                     12
                      A                      A                      A
 Frequencies --   1507.2235              1896.8940              2977.9271
 Red. masses --      1.0464                10.2687                 1.0856
 Frc consts  --      1.4006                21.7697                 5.6721
 IR Inten    --      7.2762               161.9023               120.7261
  Atom  AN      X      Y      Z        X      Y      Z        X      Y      Z
     1   6    -0.00   0.00  -0.03     0.61   0.38  -0.00     0.01  -0.08  -0.00
     2   8    -0.00  -0.00   0.00    -0.40  -0.28   0.00    -0.00  -0.00   0.00
     3   1     0.00   0.00   0.03    -0.33   0.24  -0.00    -0.11   0.99   0.00
     4   6     0.00  -0.00  -0.05    -0.05  -0.02   0.00     0.00   0.00   0.00
     5   1    -0.00   0.00   0.73    -0.20   0.12  -0.00    -0.03  -0.04   0.00
     6   1     0.43   0.22   0.05     0.07  -0.04  -0.05     0.00   0.00  -0.00
     7   1    -0.43  -0.22   0.05     0.07  -0.04   0.05     0.00   0.00   0.00
                     13                     14                     15
                      A                      A                      A
 Frequencies --   3096.8318              3172.0557              3197.2815
 Red. masses --      1.0357                 1.1007                 1.1047
 Frc consts  --      5.8523                 6.5252                 6.6537
 IR Inten    --      0.8865                 2.5932                13.5077
  Atom  AN      X      Y      Z        X      Y      Z        X      Y      Z
     1   6     0.00  -0.00  -0.00    -0.00   0.00  -0.00     0.00  -0.00  -0.00
     2   8    -0.00   0.00   0.00     0.00   0.00   0.00    -0.00   0.00   0.00
     3   1    -0.01   0.03  -0.00     0.00  -0.00  -0.00    -0.01   0.04  -0.00
     4   6    -0.04   0.03  -0.00     0.00   0.00  -0.09    -0.04  -0.08  -0.00
     5   1     0.34   0.37  -0.00    -0.00  -0.00  -0.02     0.59   0.63  -0.00
     6   1     0.07  -0.35   0.50     0.09  -0.42   0.56    -0.05   0.19  -0.29
     7   1     0.07  -0.35  -0.50    -0.09   0.42   0.56    -0.05   0.19   0.29

 -------------------
 - Thermochemistry -
 -------------------
 Temperature   298.150 Kelvin.  Pressure   1.00000 Atm.
 Atom     1 has atomic number  6 and mass  12.00000
 Atom     2 has atomic number  8 and mass  15.99491
 Atom     3 has atomic number  1 and mass   1.00783
 Atom     4 has atomic number  6 and mass  12.00000
 Atom     5 has atomic number  1 and mass   1.00783
 Atom     6 has atomic number  1 and mass   1.00783
 Atom     7 has atomic number  1 and mass   1.00783
 Molecular mass:    44.02621 amu.
 Principal axes and moments of inertia in atomic units:
                           1         2         3
     Eigenvalues --    32.42626 176.15315 197.39236
           X            0.99956  -0.02977   0.00000
           Y            0.02977   0.99956   0.00000
           Z           -0.00000  -0.00000   1.00000
 This molecule is an asymmetric top.
 Rotational symmetry number  1.
 Rotational temperatures (Kelvin)      2.67110     0.49170     0.43879
 Rotational constants (GHZ):          55.65678    10.24530     9.14291
    1 imaginary frequencies ignored.
 Zero-point vibrational energy     147665.4 (Joules/Mol)
                                   35.29288 (Kcal/Mol)
 Warning -- explicit consideration of   1 degrees of freedom as
           vibrations may cause significant error
 Vibrational temperatures:    730.85  1095.12  1369.88  1605.20  1650.28
          (Kelvin)           2013.92  2093.12  2159.71  2168.56  2729.21
                             4284.57  4455.65  4563.88  4600.18
 
 Zero-point correction=                           0.056243 (Hartree/Particle)
 Thermal correction to Energy=                    0.059496
 Thermal correction to Enthalpy=                  0.060441
 Thermal correction to Gibbs Free Energy=         0.031893
 Sum of electronic and zero-point Energies=           -153.694952
 Sum of electronic and thermal Energies=              -153.691698
 Sum of electronic and thermal Enthalpies=            -153.690754
 Sum of electronic and thermal Free Energies=         -153.719301
 
                     E (Thermal)             CV                S
                      KCal/Mol        Cal/Mol-Kelvin    Cal/Mol-Kelvin
 Total                   37.335              9.212             60.083
 Electronic               0.000              0.000              0.000
 Translational            0.889              2.981             37.273
 Rotational               0.889              2.981             21.649
 Vibrational             35.557              3.250              1.161
 Vibration     1          0.863              1.232              0.639
                       Q            Log10(Q)             Ln(Q)
 Total Bot       0.213825D-14        -14.669941        -33.778787
 Total V=0       0.158460D+12         11.199918         25.788765
 Vib (Bot)       0.154929D-25        -25.809866        -59.429413
 Vib (Bot)    1  0.321255D+00         -0.493150         -1.135519
 Vib (V=0)       0.114814D+01          0.059993          0.138139
 Vib (V=0)    1  0.109431D+01          0.039141          0.090124
 Electronic      0.100000D+01          0.000000          0.000000
 Translational   0.114821D+08          7.060021         16.256299
 Rotational      0.120200D+05          4.079904          9.394327
 ***** Axes restored to original set *****
 -------------------------------------------------------------------
 Center     Atomic                   Forces (Hartrees/Bohr)
 Number     Number              X              Y              Z
 -------------------------------------------------------------------
      1        6          -0.000024010    0.000008693    0.000000019
      2        8           0.000010472   -0.000007550    0.000000103
      3        1          -0.000002043    0.000001110   -0.000000160
      4        6           0.000027174   -0.000009954    0.000000098
      5        1          -0.000002928    0.000007614    0.000000009
      6        1          -0.000004346    0.000000173   -0.000021378
      7        1          -0.000004319   -0.000000086    0.000021309
 -------------------------------------------------------------------
 Cartesian Forces:  Max     0.000027174 RMS     0.000011290
 FormGI is forming the generalized inverse of G from B-inverse, IUseBI=4.

 GradGradGradGradGradGradGradGradGradGradGradGradGradGradGradGradGradGrad
 Berny optimization.
 Internal  Forces:  Max     0.000017629 RMS     0.000008388
 Search for a local minimum.
 Step number   1 out of a maximum of    2
 All quantities printed in internal units (Hartrees-Bohrs-Radians)
 Second derivative matrix not updated -- analytic derivatives used.
 ITU=  0
     Eigenvalues ---   -0.00126   0.04761   0.05567   0.05691   0.11900
     Eigenvalues ---    0.12679   0.13583   0.15720   0.22665   0.30213
     Eigenvalues ---    0.31597   0.34996   0.35371   0.35872   0.94940
 Eigenvalue     1 is  -1.26D-03 should be greater than     0.000000 Eigenvector:
                          D5        D6        D2        D3        D4
   1                   -0.43126  -0.43126  -0.40867  -0.40866  -0.39363
                          D1        A7        A8        A6        A5
   1                   -0.37103  -0.02312   0.02311   0.01231  -0.01231
 Angle between quadratic step and forces=  50.33 degrees.
 Linear search not attempted -- first point.
 Iteration  1 RMS(Cart)=  0.00007749 RMS(Int)=  0.00000001
 Iteration  2 RMS(Cart)=  0.00000000 RMS(Int)=  0.00000000
 Variable       Old X    -DE/DX   Delta X   Delta X   Delta X     New X
                                 (Linear)    (Quad)   (Total)
    R1        2.27705   0.00001   0.00000   0.00002   0.00002   2.27706
    R2        2.09700   0.00000   0.00000   0.00000   0.00000   2.09700
    R3        2.85707  -0.00001   0.00000  -0.00004  -0.00004   2.85703
    R4        2.06205   0.00001   0.00000   0.00003   0.00003   2.06208
    R5        2.06720   0.00002   0.00000   0.00004   0.00004   2.06725
    R6        2.06720   0.00002   0.00000   0.00004   0.00004   2.06724
    A1        2.09977   0.00000   0.00000  -0.00000  -0.00000   2.09977
    A2        2.14727  -0.00000   0.00000   0.00002   0.00002   2.14729
    A3        2.03614  -0.00000   0.00000  -0.00002  -0.00002   2.03613
    A4        1.95577  -0.00001   0.00000  -0.00010  -0.00010   1.95567
    A5        1.90517   0.00000   0.00000   0.00003   0.00003   1.90520
    A6        1.90517   0.00000   0.00000   0.00004   0.00004   1.90521
    A7        1.91086  -0.00000   0.00000  -0.00007  -0.00007   1.91079
    A8        1.91086  -0.00000   0.00000  -0.00006  -0.00006   1.91080
    A9        1.87421   0.00001   0.00000   0.00017   0.00017   1.87438
    D1        3.14153  -0.00000   0.00000  -0.00006  -0.00006   3.14147
    D2       -1.02195  -0.00001   0.00000  -0.00019  -0.00019  -1.02214
    D3        1.02182   0.00001   0.00000   0.00006   0.00006   1.02187
    D4       -0.00007  -0.00000   0.00000  -0.00007  -0.00007  -0.00013
    D5        2.11964  -0.00001   0.00000  -0.00020  -0.00020   2.11944
    D6       -2.11978   0.00001   0.00000   0.00005   0.00005  -2.11973
         Item               Value     Threshold  Converged?
 Maximum Force            0.000018     0.000450     YES
 RMS     Force            0.000008     0.000300     YES
 Maximum Displacement     0.000164     0.001800     YES
 RMS     Displacement     0.000077     0.001200     YES
 Predicted change in Energy=-4.756976D-09
 Optimization completed.
    -- Stationary point found.
                           ----------------------------
                           !   Optimized Parameters   !
                           ! (Angstroms and Degrees)  !
 --------------------------                            --------------------------
 ! Name  Definition              Value          Derivative Info.                !
 --------------------------------------------------------------------------------
 ! R1    R(1,2)                  1.205          -DE/DX =    0.0                 !
 ! R2    R(1,3)                  1.1097         -DE/DX =    0.0                 !
 ! R3    R(1,4)                  1.5119         -DE/DX =    0.0                 !
 ! R4    R(4,5)                  1.0912         -DE/DX =    0.0                 !
 ! R5    R(4,6)                  1.0939         -DE/DX =    0.0                 !
 ! R6    R(4,7)                  1.0939         -DE/DX =    0.0                 !
 ! A1    A(2,1,3)              120.3078         -DE/DX =    0.0                 !
 ! A2    A(2,1,4)              123.0297         -DE/DX =    0.0                 !
 ! A3    A(3,1,4)              116.6625         -DE/DX =    0.0                 !
 ! A4    A(1,4,5)              112.0574         -DE/DX =    0.0                 !
 ! A5    A(1,4,6)              109.1579         -DE/DX =    0.0                 !
 ! A6    A(1,4,7)              109.1581         -DE/DX =    0.0                 !
 ! A7    A(5,4,6)              109.484          -DE/DX =    0.0                 !
 ! A8    A(5,4,7)              109.4844         -DE/DX =    0.0                 !
 ! A9    A(6,4,7)              107.3842         -DE/DX =    0.0                 !
 ! D1    D(2,1,4,5)            179.9964         -DE/DX =    0.0                 !
 ! D2    D(2,1,4,6)            -58.5536         -DE/DX =    0.0                 !
 ! D3    D(2,1,4,7)             58.5459         -DE/DX =    0.0                 !
 ! D4    D(3,1,4,5)             -0.0037         -DE/DX =    0.0                 !
 ! D5    D(3,1,4,6)            121.4463         -DE/DX =    0.0                 !
 ! D6    D(3,1,4,7)           -121.4543         -DE/DX =    0.0                 !
 --------------------------------------------------------------------------------
 GradGradGradGradGradGradGradGradGradGradGradGradGradGradGradGradGradGrad


 ----------------------------------------------------------------------

 Electric dipole moment (input orientation):
 (Debye = 10**-18 statcoulomb cm , SI units = C m)
                  (au)            (Debye)         (10**-30 SI)
   Tot        0.100971D+01      0.256642D+01      0.856066D+01
   x         -0.927754D+00     -0.235812D+01     -0.786583D+01
   y          0.398475D+00      0.101282D+01      0.337841D+01
   z          0.000000D+00      0.000000D+00      0.000000D+00

 Dipole polarizability, Alpha (input orientation).
 (esu units = cm**3 , SI units = C**2 m**2 J**-1)
 Alpha(0;0):
               (au)            (10**-24 esu)      (10**-40 SI)
   iso        0.233833D+02      0.346504D+01      0.385538D+01
   aniso      0.983452D+01      0.145733D+01      0.162149D+01
   xx         0.277940D+02      0.411865D+01      0.458262D+01
   yx        -0.149224D+01     -0.221127D+00     -0.246036D+00
   yy         0.251049D+02      0.372016D+01      0.413923D+01
   zx         0.340916D-04      0.505186D-05      0.562095D-05
   zy         0.152436D-04      0.225886D-05      0.251333D-05
   zz         0.172509D+02      0.255632D+01      0.284429D+01

 ----------------------------------------------------------------------

 Dipole orientation:
     6          0.35430341          0.82490821         -0.10866818
     8          0.16103284          0.37496252         -2.33243579
     1          1.14186019          2.65854680          0.53546841
     6         -0.43669873         -1.01678363          1.92734478
     1         -0.11350253         -0.26463355          3.81992445
     1         -2.44172598         -1.46368782          1.69610846
     1          0.61948458         -2.77867095          1.69593357

 Electric dipole moment (dipole orientation):
 (Debye = 10**-18 statcoulomb cm , SI units = C m)
                  (au)            (Debye)         (10**-30 SI)
   Tot        0.100971D+01      0.256642D+01      0.856066D+01
   x          0.000000D+00      0.000000D+00      0.000000D+00
   y          0.000000D+00      0.000000D+00      0.000000D+00
   z          0.100971D+01      0.256642D+01      0.856066D+01

 Dipole polarizability, Alpha (dipole orientation).
 (esu units = cm**3 , SI units = C**2 m**2 J**-1)
 Alpha(0;0):
               (au)            (10**-24 esu)      (10**-40 SI)
   iso        0.233833D+02      0.346504D+01      0.385538D+01
   aniso      0.983452D+01      0.145733D+01      0.162149D+01
   xx         0.183708D+02      0.272227D+01      0.302893D+01
   yx         0.260741D+01      0.386379D+00      0.429904D+00
   yy         0.233216D+02      0.345590D+01      0.384521D+01
   zx         0.206746D-01      0.306366D-02      0.340878D-02
   zy         0.480281D-01      0.711702D-02      0.791876D-02
   zz         0.284574D+02      0.421696D+01      0.469200D+01

 ----------------------------------------------------------------------
 Unable to Open any file for archive entry.
 1\1\GINC-NODE18\Freq\RM062X\6-31G(d)\C2H4O1\RPATON\19-Jan-2026\0\\#N G
 eom=AllCheck Guess=TCheck SCRF=Check GenChk RM062X/6-31G(d) Freq\\acet
 aldehyde created by GaussianPrep\\0,1\C,0.240326,0.413829,0.000001\O,1
 .219313,-0.288679,0.\H,0.343887,1.518668,-0.000001\C,-1.168223,-0.1355
 56,0.000001\H,-1.917481,0.657732,0.000065\H,-1.306786,-0.768245,-0.881
 565\H,-1.306745,-0.768357,0.881492\\Version=AS64L-G16RevC.01\State=1-A
 \HF=-153.7511949\RMSD=8.604e-10\RMSF=1.129e-05\ZeroPoint=0.0562428\The
 rmal=0.0594964\ETot=-153.6916985\HTot=-153.6907543\GTot=-153.7193015\D
 ipole=-0.9277544,0.398475,-0.0000061\DipoleDeriv=1.2116277,-0.0250939,
 0.0000051,0.0587585,0.9443347,0.0000011,0.0000041,-0.0000061,0.1831569
 ,-0.9452266,0.1781833,-0.0000003,0.2358938,-0.6226688,0.0000012,0.0000
 008,0.000004,-0.3439167,-0.0402396,-0.0394245,0.0000015,-0.0649118,-0.
 277657,0.,0.0000001,-0.0000006,0.0734719,-0.281373,-0.1548447,-0.00000
 81,-0.3366149,-0.0983274,-0.0000009,-0.0000203,0.0000039,0.0083013,-0.
 0194268,0.0464086,0.000005,0.102906,-0.0443921,-0.0000086,0.0000115,-0
 .0000061,0.0744159,0.0373194,-0.0026163,0.0108682,0.0019837,0.0493656,
 -0.0674634,-0.0137712,-0.0682212,0.0022761,0.0373189,-0.0026126,-0.010
 8714,0.0019848,0.0493449,0.0674706,0.013775,0.0682261,0.0022946\Polar=
 27.7940448,-1.492236,25.104851,0.0000341,0.0000152,17.2508819\Quadrupo
 le=-1.516867,0.7356531,0.7812139,0.8339024,0.0000193,0.0000002\PG=C01 
 [X(C2H4O1)]\NImag=1\\0.86007259,-0.24126932,0.77524618,-0.00000057,-0.
 00000051,0.21049492,-0.58960837,0.35209500,0.00000062,0.64884724,0.354
 50274,-0.37067359,-0.00000009,-0.40579680,0.37607145,0.00000078,-0.000
 00009,-0.06405892,-0.00000073,0.00000015,0.02181202,-0.07000589,-0.044
 48047,-0.00000004,0.00165757,0.04655693,-0.00000003,0.07347274,-0.0498
 8992,-0.27170174,0.00000050,0.02745370,-0.03221048,0.00000005,0.025826
 86,0.31183973,-0.00000019,0.00000029,-0.06329256,0.00000004,-0.0000000
 4,0.02202171,-0.00000026,-0.00000055,0.02050652,-0.18012885,-0.0591882
 1,0.00000056,-0.05374931,0.00560086,-0.00000030,-0.00058076,0.00122571
 ,0.00000027,0.51869650,-0.04555989,-0.12434788,-0.00000030,0.02485351,
 0.02513455,0.00000056,-0.02424131,-0.00737256,-0.00000015,-0.05509960,
 0.58290091,0.00000160,0.00000079,-0.08107793,-0.00000019,0.00000040,0.
 01532602,0.00000064,-0.00000001,0.02290163,-0.00000271,-0.00000166,0.5
 4376470,-0.01349571,0.03103449,0.00000183,-0.00959891,-0.00486784,-0.0
 0000012,0.00128917,-0.00136515,-0.00000024,-0.18091403,0.13704655,0.00
 001177,0.19443543,-0.01145429,0.01324991,0.00000142,-0.00323914,-0.000
 77768,-0.00000041,0.00090760,0.00023592,-0.00000004,0.14208110,-0.2022
 6862,-0.00001175,-0.15193283,0.21388399,-0.00000070,0.00000022,-0.0040
 8447,-0.00000013,-0.00000013,0.00269735,0.00000004,0.00000007,-0.00005
 369,0.00001179,-0.00001156,-0.04968317,-0.00001245,0.00001318,0.047529
 88,-0.00341759,-0.01909358,-0.02867554,0.00122558,0.00200180,0.0040681
 5,-0.00291610,-0.00162558,0.00298632,-0.05166276,-0.01850123,-0.032366
 63,0.00414253,0.01181769,0.02019217,0.05233830,-0.00316474,-0.01088556
 ,-0.00931962,0.00231677,0.00122765,0.00079684,-0.00228464,-0.00039550,
 0.00174821,-0.01731146,-0.13700618,-0.13448562,-0.00495803,-0.01216086
 ,-0.01859764,0.02214447,0.14663142,0.00076662,0.00159513,0.00100962,-0
 .00029956,0.00039659,0.00110095,0.00013039,0.00050702,-0.00104189,-0.0
 2821370,-0.13140442,-0.22563042,0.00102183,0.00235125,0.00179549,0.030
 19524,0.14320411,0.24361532,-0.00341616,-0.01909790,0.02867314,0.00122
 621,0.00200231,-0.00406776,-0.00291673,-0.00162562,-0.00298595,-0.0516
 6079,-0.01849804,0.03235552,0.00414152,0.01181987,-0.02019073,0.000290
 04,0.00325763,-0.00360081,0.05233591,-0.00316458,-0.01088733,0.0093186
 1,0.00231696,0.00122810,-0.00079711,-0.00228497,-0.00039537,-0.0017477
 2,-0.01730839,-0.13704022,0.13449785,-0.00495719,-0.01216266,0.0185958
 6,0.00325643,0.01258903,-0.01664967,0.02214175,0.14666846,-0.00076755,
 -0.00159583,0.00100935,0.00029994,-0.00039688,0.00110088,-0.00013075,-
 0.00050706,-0.00104171,0.02820409,0.13141752,-0.22560083,-0.00102261,-
 0.00235365,0.00179862,0.00360028,0.01665372,-0.02084907,-0.03018341,-0
 .14321781,0.24358276\\0.00002401,-0.00000869,-0.00000002,-0.00001047,0
 .00000755,-0.00000010,0.00000204,-0.00000111,0.00000016,-0.00002717,0.
 00000995,-0.00000010,0.00000293,-0.00000761,0.,0.00000435,-0.00000017,
 0.00002138,0.00000432,0.00000009,-0.00002131\\\@
 The archive entry for this job was punched.


 BULLDOZER: SOMEONE WHO SLEEPS THROUGH SPEECHES.
 Job cpu time:       0 days  0 hours  0 minutes 48.6 seconds.
 Elapsed time:       0 days  0 hours  0 minutes  3.5 seconds.
 File lengths (MBytes):  RWF=      6 Int=      0 D2E=      0 Chk=      2 Scr=      1
 Normal termination of Gaussian 16 at Mon Jan 19 15:04:39 2026.
