 Entering Gaussian System, Link 0=/Applications/Gaussian/g16/g16
 Input=claisen_ts_QRCF.com
 Output=claisen_ts_QRCF.log
 Initial command:
 /Applications/Gaussian/g16/l1.exe "/var/folders/8d/fj_bgxp52vnfqt8xr3qz3b1h0000gn/T/Gau-75184.inp" -scrdir="/var/folders/8d/fj_bgxp52vnfqt8xr3qz3b1h0000gn/T/"
 Entering Link 1 = /Applications/Gaussian/g16/l1.exe PID=     75185.
  
 Copyright (c) 1988-2017, Gaussian, Inc.  All Rights Reserved.
  
 This is part of the Gaussian(R) 16 program.  It is based on
 the Gaussian(R) 09 system (copyright 2009, Gaussian, Inc.),
 the Gaussian(R) 03 system (copyright 2003, Gaussian, Inc.),
 the Gaussian(R) 98 system (copyright 1998, Gaussian, Inc.),
 the Gaussian(R) 94 system (copyright 1995, Gaussian, Inc.),
 the Gaussian 92(TM) system (copyright 1992, Gaussian, Inc.),
 the Gaussian 90(TM) system (copyright 1990, Gaussian, Inc.),
 the Gaussian 88(TM) system (copyright 1988, Gaussian, Inc.),
 the Gaussian 86(TM) system (copyright 1986, Carnegie Mellon
 University), and the Gaussian 82(TM) system (copyright 1983,
 Carnegie Mellon University). Gaussian is a federally registered
 trademark of Gaussian, Inc.
  
 This software contains proprietary and confidential information,
 including trade secrets, belonging to Gaussian, Inc.
  
 This software is provided under written license and may be
 used, copied, transmitted, or stored only in accord with that
 written license.
  
 The following legend is applicable only to US Government
 contracts under FAR:
  
                    RESTRICTED RIGHTS LEGEND
  
 Use, reproduction and disclosure by the US Government is
 subject to restrictions as set forth in subparagraphs (a)
 and (c) of the Commercial Computer Software - Restricted
 Rights clause in FAR 52.227-19.
  
 Gaussian, Inc.
 340 Quinnipiac St., Bldg. 40, Wallingford CT 06492
  
  
 ---------------------------------------------------------------
 Warning -- This program may not be used in any manner that
 competes with the business of Gaussian, Inc. or will provide
 assistance to any competitor of Gaussian, Inc.  The licensee
 of this program is prohibited from giving any competitor of
 Gaussian, Inc. access to this program.  By using this program,
 the user acknowledges that Gaussian, Inc. is engaged in the
 business of creating and licensing software in the field of
 computational chemistry and represents and warrants to the
 licensee that it is not a competitor of Gaussian, Inc. and that
 it will not use this program in any manner prohibited above.
 ---------------------------------------------------------------
  

 Cite this work as:
 Gaussian 16, Revision B.01,
 M. J. Frisch, G. W. Trucks, H. B. Schlegel, G. E. Scuseria, 
 M. A. Robb, J. R. Cheeseman, G. Scalmani, V. Barone, 
 G. A. Petersson, H. Nakatsuji, X. Li, M. Caricato, A. V. Marenich, 
 J. Bloino, B. G. Janesko, R. Gomperts, B. Mennucci, H. P. Hratchian, 
 J. V. Ortiz, A. F. Izmaylov, J. L. Sonnenberg, D. Williams-Young, 
 F. Ding, F. Lipparini, F. Egidi, J. Goings, B. Peng, A. Petrone, 
 T. Henderson, D. Ranasinghe, V. G. Zakrzewski, J. Gao, N. Rega, 
 G. Zheng, W. Liang, M. Hada, M. Ehara, K. Toyota, R. Fukuda, 
 J. Hasegawa, M. Ishida, T. Nakajima, Y. Honda, O. Kitao, H. Nakai, 
 T. Vreven, K. Throssell, J. A. Montgomery, Jr., J. E. Peralta, 
 F. Ogliaro, M. J. Bearpark, J. J. Heyd, E. N. Brothers, K. N. Kudin, 
 V. N. Staroverov, T. A. Keith, R. Kobayashi, J. Normand, 
 K. Raghavachari, A. P. Rendell, J. C. Burant, S. S. Iyengar, 
 J. Tomasi, M. Cossi, J. M. Millam, M. Klene, C. Adamo, R. Cammi, 
 J. W. Ochterski, R. L. Martin, K. Morokuma, O. Farkas, 
 J. B. Foresman, and D. J. Fox, Gaussian, Inc., Wallingford CT, 2016.
 
 ******************************************
 Gaussian 16:  EM64M-G16RevB.01 20-Dec-2017
                 7-May-2018 
 ******************************************
 %chk=claisen_ts_QRCF.chk
 %nproc=4
 Will use up to    4 processors via shared memory.
 %mem=8GB
 -------------------------
 # opt freq b3lyp/6-31g(d)
 -------------------------
 1/18=20,19=15,26=3,38=1/1,3;
 2/9=110,12=2,17=6,18=5,40=1/2;
 3/5=1,6=6,7=1,11=2,25=1,30=1,71=1,74=-5/1,2,3;
 4//1;
 5/5=2,38=5/2;
 6/7=2,8=2,9=2,10=2,28=1/1;
 7//1,2,3,16;
 1/18=20,19=15,26=3/3(2);
 2/9=110/2;
 99//99;
 2/9=110/2;
 3/5=1,6=6,7=1,11=2,25=1,30=1,71=1,74=-5/1,2,3;
 4/5=5,16=3,69=1/1;
 5/5=2,38=5/2;
 7//1,2,3,16;
 1/18=20,19=15,26=3/3(-5);
 2/9=110/2;
 6/7=2,8=2,9=2,10=2,19=2,28=1/1;
 99/9=1/99;
 ---------------
 claisen_ts_QRCF
 ---------------
 Symbolic Z-matrix:
 Charge =  0 Multiplicity = 1
 C                    -1.36431   0.83517  -0.26898 
 C                    -1.29106  -0.49306   0.25884 
 O                    -0.61603  -1.38246  -0.26722 
 C                     1.42657  -0.86128   0.20303 
 C                     1.3807    0.3977   -0.3018 
 C                     0.55768   1.4013    0.30424 
 H                    -2.0439    1.5464    0.19979 
 H                    -1.2464    0.93869  -1.35399 
 H                    -1.68566  -0.62815   1.29081 
 H                     1.85339  -1.69391  -0.34732 
 H                     1.16154  -1.06649   1.24582 
 H                     1.6835    0.55403  -1.33568 
 H                     0.55703   2.40695  -0.1107 
 H                     0.45721   1.38018   1.39506 
 
 Add virtual bond connecting atoms C4         and O3         Dist= 4.08D+00.
 Add virtual bond connecting atoms C6         and C1         Dist= 3.94D+00.

 GradGradGradGradGradGradGradGradGradGradGradGradGradGradGradGradGradGrad
 Berny optimization.
 Initialization pass.
                           ----------------------------
                           !    Initial Parameters    !
                           ! (Angstroms and Degrees)  !
 --------------------------                            --------------------------
 ! Name  Definition              Value          Derivative Info.                !
 --------------------------------------------------------------------------------
 ! R1    R(1,2)                  1.4311         estimate D2E/DX2                !
 ! R2    R(1,6)                  2.084          estimate D2E/DX2                !
 ! R3    R(1,7)                  1.0897         estimate D2E/DX2                !
 ! R4    R(1,8)                  1.0963         estimate D2E/DX2                !
 ! R5    R(2,3)                  1.2343         estimate D2E/DX2                !
 ! R6    R(2,9)                  1.1131         estimate D2E/DX2                !
 ! R7    R(3,4)                  2.1599         estimate D2E/DX2                !
 ! R8    R(4,5)                  1.3572         estimate D2E/DX2                !
 ! R9    R(4,10)                 1.0855         estimate D2E/DX2                !
 ! R10   R(4,11)                 1.0953         estimate D2E/DX2                !
 ! R11   R(5,6)                  1.4324         estimate D2E/DX2                !
 ! R12   R(5,12)                 1.0886         estimate D2E/DX2                !
 ! R13   R(6,13)                 1.0879         estimate D2E/DX2                !
 ! R14   R(6,14)                 1.0956         estimate D2E/DX2                !
 ! A1    A(2,1,6)               95.9389         estimate D2E/DX2                !
 ! A2    A(2,1,7)              118.621          estimate D2E/DX2                !
 ! A3    A(2,1,8)              116.561          estimate D2E/DX2                !
 ! A4    A(6,1,7)              106.2322         estimate D2E/DX2                !
 ! A5    A(6,1,8)               98.4752         estimate D2E/DX2                !
 ! A6    A(7,1,8)              115.5441         estimate D2E/DX2                !
 ! A7    A(1,2,3)              122.6544         estimate D2E/DX2                !
 ! A8    A(1,2,9)              115.877          estimate D2E/DX2                !
 ! A9    A(3,2,9)              120.1048         estimate D2E/DX2                !
 ! A10   A(2,3,4)              104.5094         estimate D2E/DX2                !
 ! A11   A(3,4,5)               96.3667         estimate D2E/DX2                !
 ! A12   A(3,4,10)              94.3807         estimate D2E/DX2                !
 ! A13   A(3,4,11)              86.1724         estimate D2E/DX2                !
 ! A14   A(5,4,10)             122.4273         estimate D2E/DX2                !
 ! A15   A(5,4,11)             121.3144         estimate D2E/DX2                !
 ! A16   A(10,4,11)            115.729          estimate D2E/DX2                !
 ! A17   A(4,5,6)              120.7951         estimate D2E/DX2                !
 ! A18   A(4,5,12)             118.4951         estimate D2E/DX2                !
 ! A19   A(6,5,12)             117.4529         estimate D2E/DX2                !
 ! A20   A(1,6,5)              102.897          estimate D2E/DX2                !
 ! A21   A(1,6,13)              98.3752         estimate D2E/DX2                !
 ! A22   A(1,6,14)             100.6049         estimate D2E/DX2                !
 ! A23   A(5,6,13)             119.1198         estimate D2E/DX2                !
 ! A24   A(5,6,14)             117.4132         estimate D2E/DX2                !
 ! A25   A(13,6,14)            113.4219         estimate D2E/DX2                !
 ! D1    D(6,1,2,3)            -72.8286         estimate D2E/DX2                !
 ! D2    D(6,1,2,9)             93.8286         estimate D2E/DX2                !
 ! D3    D(7,1,2,3)            175.0279         estimate D2E/DX2                !
 ! D4    D(7,1,2,9)            -18.3148         estimate D2E/DX2                !
 ! D5    D(8,1,2,3)             29.7433         estimate D2E/DX2                !
 ! D6    D(8,1,2,9)           -163.5994         estimate D2E/DX2                !
 ! D7    D(2,1,6,5)             55.6752         estimate D2E/DX2                !
 ! D8    D(2,1,6,13)           178.2447         estimate D2E/DX2                !
 ! D9    D(2,1,6,14)           -65.8853         estimate D2E/DX2                !
 ! D10   D(7,1,6,5)            177.8077         estimate D2E/DX2                !
 ! D11   D(7,1,6,13)           -59.6228         estimate D2E/DX2                !
 ! D12   D(7,1,6,14)            56.2472         estimate D2E/DX2                !
 ! D13   D(8,1,6,5)            -62.361          estimate D2E/DX2                !
 ! D14   D(8,1,6,13)            60.2086         estimate D2E/DX2                !
 ! D15   D(8,1,6,14)           176.0785         estimate D2E/DX2                !
 ! D16   D(1,2,3,4)             73.5786         estimate D2E/DX2                !
 ! D17   D(9,2,3,4)            -92.5342         estimate D2E/DX2                !
 ! D18   D(2,3,4,5)            -54.686          estimate D2E/DX2                !
 ! D19   D(2,3,4,10)          -178.0314         estimate D2E/DX2                !
 ! D20   D(2,3,4,11)            66.4227         estimate D2E/DX2                !
 ! D21   D(3,4,5,6)             66.6056         estimate D2E/DX2                !
 ! D22   D(3,4,5,12)           -92.4947         estimate D2E/DX2                !
 ! D23   D(10,4,5,6)           165.9251         estimate D2E/DX2                !
 ! D24   D(10,4,5,12)            6.8249         estimate D2E/DX2                !
 ! D25   D(11,4,5,6)           -22.7788         estimate D2E/DX2                !
 ! D26   D(11,4,5,12)          178.1209         estimate D2E/DX2                !
 ! D27   D(4,5,6,1)            -73.8587         estimate D2E/DX2                !
 ! D28   D(4,5,6,13)           178.7683         estimate D2E/DX2                !
 ! D29   D(4,5,6,14)            35.4973         estimate D2E/DX2                !
 ! D30   D(12,5,6,1)            85.4518         estimate D2E/DX2                !
 ! D31   D(12,5,6,13)          -21.9212         estimate D2E/DX2                !
 ! D32   D(12,5,6,14)         -165.1922         estimate D2E/DX2                !
 --------------------------------------------------------------------------------
 Trust Radius=3.00D-01 FncErr=1.00D-07 GrdErr=1.00D-06 EigMax=2.50D+02 EigMin=1.00D-04
 Number of steps in this run=     81 maximum allowed number of steps=    100.
 GradGradGradGradGradGradGradGradGradGradGradGradGradGradGradGradGradGrad

                          Input orientation:                          
 ---------------------------------------------------------------------
 Center     Atomic      Atomic             Coordinates (Angstroms)
 Number     Number       Type             X           Y           Z
 ---------------------------------------------------------------------
      1          6           0       -1.364309    0.835168   -0.268984
      2          6           0       -1.291057   -0.493055    0.258839
      3          8           0       -0.616026   -1.382456   -0.267221
      4          6           0        1.426570   -0.861284    0.203034
      5          6           0        1.380702    0.397704   -0.301796
      6          6           0        0.557679    1.401295    0.304236
      7          1           0       -2.043896    1.546398    0.199794
      8          1           0       -1.246400    0.938689   -1.353994
      9          1           0       -1.685663   -0.628151    1.290812
     10          1           0        1.853394   -1.693906   -0.347320
     11          1           0        1.161540   -1.066495    1.245816
     12          1           0        1.683496    0.554034   -1.335675
     13          1           0        0.557027    2.406945   -0.110698
     14          1           0        0.457205    1.380175    1.395056
 ---------------------------------------------------------------------
                    Distance matrix (angstroms):
                    1          2          3          4          5
     1  C    0.000000
     2  C    1.431132   0.000000
     3  O    2.340467   1.234277   0.000000
     4  C    3.299963   2.743028   2.159851   0.000000
     5  C    2.779845   2.871595   2.675273   1.357206   0.000000
     6  C    2.084015   2.647347   3.074641   2.425794   1.432423
     7  H    1.089697   2.174769   3.291672   4.223870   3.646774
     8  H    1.096296   2.157108   2.639349   3.578967   2.881224
     9  H    2.162761   1.113074   2.034838   3.305088   3.604355
    10  H    4.093405   3.420094   2.490271   1.085508   2.144841
    11  H    3.505831   2.705215   2.355600   1.095330   2.141731
    12  H    3.241293   3.533672   3.190515   2.106362   1.088590
    13  H    2.487382   3.458608   3.969901   3.396447   2.179910
    14  H    2.526653   2.802927   3.398105   2.717485   2.167349
                    6          7          8          9         10
     6  C    0.000000
     7  H    2.607711   0.000000
     8  H    2.493678   1.849207   0.000000
     9  H    3.181912   2.459129   3.105308   0.000000
    10  H    3.418139   5.097820   4.189591   4.042800   0.000000
    11  H    2.709466   4.265699   4.071603   2.881100   1.846724
    12  H    2.162088   4.151614   2.955095   4.432519   2.461492
    13  H    1.087889   2.757127   2.637027   4.025630   4.307382
    14  H    1.095641   2.777011   3.264116   2.938728   3.799367
                   11         12         13         14
    11  H    0.000000
    12  H    3.092353   0.000000
    13  H    3.777612   2.490538   0.000000
    14  H    2.550403   3.105349   1.825244   0.000000
 Stoichiometry    C5H8O
 Framework group  C1[X(C5H8O)]
 Deg. of freedom    36
 Full point group                 C1      NOp   1
 Largest Abelian subgroup         C1      NOp   1
 Largest concise Abelian subgroup C1      NOp   1
                         Standard orientation:                         
 ---------------------------------------------------------------------
 Center     Atomic      Atomic             Coordinates (Angstroms)
 Number     Number       Type             X           Y           Z
 ---------------------------------------------------------------------
      1          6           0       -1.387579    0.796860   -0.269991
      2          6           0       -1.278792   -0.528473    0.258966
      3          8           0       -0.580235   -1.399949   -0.266379
      4          6           0        1.447711   -0.823913    0.203279
      5          6           0        1.368152    0.432963   -0.302628
      6          6           0        0.518604    1.414697    0.302602
      7          1           0       -2.085927    1.490057    0.198225
      8          1           0       -1.272536    0.902565   -1.355099
      9          1           0       -1.669591   -0.673190    1.291084
     10          1           0        1.896630   -1.645291   -0.346391
     11          1           0        1.188318   -1.035244    1.246256
     12          1           0        1.666603    0.596448   -1.336663
     13          1           0        0.491027    2.419612   -0.113195
     14          1           0        0.418785    1.391835    1.393447
 ---------------------------------------------------------------------
 Rotational constants (GHZ):           4.7794332           3.8455553           2.4270483
 Standard basis: 6-31G(d) (6D, 7F)
 There are   106 symmetry adapted cartesian basis functions of A   symmetry.
 There are   106 symmetry adapted basis functions of A   symmetry.
   106 basis functions,   200 primitive gaussians,   106 cartesian basis functions
    23 alpha electrons       23 beta electrons
       nuclear repulsion energy       228.8762622420 Hartrees.
 NAtoms=   14 NActive=   14 NUniq=   14 SFac= 1.00D+00 NAtFMM=   60 NAOKFM=F Big=F
 Integral buffers will be    131072 words long.
 Raffenetti 2 integral format.
 Two-electron integral symmetry is turned on.
 One-electron integrals computed using PRISM.
 NBasis=   106 RedAO= T EigKep=  4.24D-03  NBF=   106
 NBsUse=   106 1.00D-06 EigRej= -1.00D+00 NBFU=   106
 ExpMin= 1.61D-01 ExpMax= 5.48D+03 ExpMxC= 8.25D+02 IAcc=3 IRadAn=         5 AccDes= 0.00D+00
 Harris functional with IExCor=  402 and IRadAn=       5 diagonalized for initial guess.
 HarFok:  IExCor=  402 AccDes= 0.00D+00 IRadAn=         5 IDoV= 1 UseB2=F ITyADJ=14
 ICtDFT=  3500011 ScaDFX=  1.000000  1.000000  1.000000  1.000000
 FoFCou: FMM=F IPFlag=           0 FMFlag=      100000 FMFlg1=           0
         NFxFlg=           0 DoJE=T BraDBF=F KetDBF=T FulRan=T
         wScrn=  0.000000 ICntrl=       500 IOpCl=  0 I1Cent=   200000004 NGrid=           0
         NMat0=    1 NMatS0=      1 NMatT0=    0 NMatD0=    1 NMtDS0=    0 NMtDT0=    0
 Petite list used in FoFCou.
 Keep R1 ints in memory in canonical form, NReq=19807700.
 Requested convergence on RMS density matrix=1.00D-08 within 128 cycles.
 Requested convergence on MAX density matrix=1.00D-06.
 Requested convergence on             energy=1.00D-06.
 No special actions if energy rises.
 Integral accuracy reduced to 1.0D-05 until final iterations.
 Initial convergence to 1.0D-05 achieved.  Increase integral accuracy.
 SCF Done:  E(RB3LYP) =  -270.471998789     A.U. after   15 cycles
            NFock= 15  Conv=0.20D-08     -V/T= 2.0097

 **********************************************************************

            Population analysis using the SCF Density.

 **********************************************************************

 Orbital symmetries:
       Occupied  (A) (A) (A) (A) (A) (A) (A) (A) (A) (A) (A) (A)
                 (A) (A) (A) (A) (A) (A) (A) (A) (A) (A) (A)
       Virtual   (A) (A) (A) (A) (A) (A) (A) (A) (A) (A) (A) (A)
                 (A) (A) (A) (A) (A) (A) (A) (A) (A) (A) (A) (A)
                 (A) (A) (A) (A) (A) (A) (A) (A) (A) (A) (A) (A)
                 (A) (A) (A) (A) (A) (A) (A) (A) (A) (A) (A) (A)
                 (A) (A) (A) (A) (A) (A) (A) (A) (A) (A) (A) (A)
                 (A) (A) (A) (A) (A) (A) (A) (A) (A) (A) (A) (A)
                 (A) (A) (A) (A) (A) (A) (A) (A) (A) (A) (A)
 The electronic state is 1-A.
 Alpha  occ. eigenvalues --  -19.12981 -10.24475 -10.21972 -10.20071 -10.19754
 Alpha  occ. eigenvalues --  -10.18257  -1.01992  -0.79525  -0.73248  -0.66788
 Alpha  occ. eigenvalues --   -0.56254  -0.55655  -0.48269  -0.46212  -0.43676
 Alpha  occ. eigenvalues --   -0.42839  -0.39254  -0.38548  -0.37976  -0.36037
 Alpha  occ. eigenvalues --   -0.28749  -0.25393  -0.22379
 Alpha virt. eigenvalues --   -0.02614   0.00949   0.09309   0.10816   0.11608
 Alpha virt. eigenvalues --    0.13450   0.14605   0.16547   0.17731   0.18924
 Alpha virt. eigenvalues --    0.20555   0.29920   0.30184   0.32273   0.35724
 Alpha virt. eigenvalues --    0.48942   0.51190   0.52441   0.56475   0.57072
 Alpha virt. eigenvalues --    0.58046   0.60649   0.62868   0.64495   0.68763
 Alpha virt. eigenvalues --    0.69544   0.73058   0.77032   0.80702   0.81358
 Alpha virt. eigenvalues --    0.84868   0.85691   0.88151   0.89191   0.91800
 Alpha virt. eigenvalues --    0.93200   0.93887   0.99013   1.02178   1.10134
 Alpha virt. eigenvalues --    1.13180   1.14156   1.21226   1.27738   1.32266
 Alpha virt. eigenvalues --    1.40242   1.46305   1.50178   1.53698   1.55529
 Alpha virt. eigenvalues --    1.64929   1.70721   1.73097   1.77481   1.79077
 Alpha virt. eigenvalues --    1.88913   1.90036   1.96977   1.99307   2.02091
 Alpha virt. eigenvalues --    2.07630   2.12615   2.17850   2.21233   2.22714
 Alpha virt. eigenvalues --    2.26470   2.27682   2.30792   2.38847   2.51772
 Alpha virt. eigenvalues --    2.54975   2.62384   2.64941   2.77619   2.86221
 Alpha virt. eigenvalues --    2.89278   2.99705   3.96073   4.13391   4.22748
 Alpha virt. eigenvalues --    4.29617   4.40101   4.44732
          Condensed to atoms (all electrons):
               1          2          3          4          5          6
     1  C    5.341534   0.410124  -0.071728  -0.017380  -0.036821   0.190803
     2  C    0.410124   4.617740   0.488652  -0.017608  -0.021295  -0.011033
     3  O   -0.071728   0.488652   8.073689   0.023003  -0.020490  -0.016259
     4  C   -0.017380  -0.017608   0.023003   5.007991   0.619063  -0.042311
     5  C   -0.036821  -0.021295  -0.020490   0.619063   4.774858   0.474465
     6  C    0.190803  -0.011033  -0.016259  -0.042311   0.474465   5.089974
     7  H    0.326090  -0.015767   0.003618   0.000407   0.001973  -0.010320
     8  H    0.353586  -0.025036   0.002618  -0.000316  -0.002465  -0.012129
     9  H   -0.114830   0.347918  -0.055709  -0.002362   0.000374  -0.001991
    10  H    0.000159   0.000151  -0.001591   0.369409  -0.025418   0.005048
    11  H   -0.000119  -0.001903  -0.009788   0.373632  -0.040913  -0.010074
    12  H   -0.000383  -0.000016  -0.000229  -0.045990   0.376839  -0.054038
    13  H   -0.014011   0.000663   0.000204   0.004863  -0.026640   0.366002
    14  H   -0.017385  -0.003791  -0.000076  -0.006429  -0.034438   0.366345
               7          8          9         10         11         12
     1  C    0.326090   0.353586  -0.114830   0.000159  -0.000119  -0.000383
     2  C   -0.015767  -0.025036   0.347918   0.000151  -0.001903  -0.000016
     3  O    0.003618   0.002618  -0.055709  -0.001591  -0.009788  -0.000229
     4  C    0.000407  -0.000316  -0.002362   0.369409   0.373632  -0.045990
     5  C    0.001973  -0.002465   0.000374  -0.025418  -0.040913   0.376839
     6  C   -0.010320  -0.012129  -0.001991   0.005048  -0.010074  -0.054038
     7  H    0.577265  -0.031843   0.003799   0.000001  -0.000014  -0.000020
     8  H   -0.031843   0.540791   0.006031  -0.000016   0.000075   0.001313
     9  H    0.003799   0.006031   0.728338  -0.000002   0.001273   0.000025
    10  H    0.000001  -0.000016  -0.000002   0.534273  -0.038575  -0.007035
    11  H   -0.000014   0.000075   0.001273  -0.038575   0.561248   0.005550
    12  H   -0.000020   0.001313   0.000025  -0.007035   0.005550   0.594103
    13  H   -0.000056  -0.001888  -0.000069  -0.000180   0.000015  -0.005166
    14  H   -0.000302   0.001531   0.001735  -0.000042   0.005570   0.004985
              13         14
     1  C   -0.014011  -0.017385
     2  C    0.000663  -0.003791
     3  O    0.000204  -0.000076
     4  C    0.004863  -0.006429
     5  C   -0.026640  -0.034438
     6  C    0.366002   0.366345
     7  H   -0.000056  -0.000302
     8  H   -0.001888   0.001531
     9  H   -0.000069   0.001735
    10  H   -0.000180  -0.000042
    11  H    0.000015   0.005570
    12  H   -0.005166   0.004985
    13  H    0.548119  -0.036844
    14  H   -0.036844   0.556526
 Mulliken charges:
               1
     1  C   -0.349640
     2  C    0.231201
     3  O   -0.415914
     4  C   -0.265973
     5  C   -0.039090
     6  C   -0.334482
     7  H    0.145171
     8  H    0.167748
     9  H    0.085468
    10  H    0.163820
    11  H    0.154021
    12  H    0.130063
    13  H    0.164988
    14  H    0.162617
 Sum of Mulliken charges =  -0.00000
 Mulliken charges with hydrogens summed into heavy atoms:
               1
     1  C   -0.036721
     2  C    0.316670
     3  O   -0.415914
     4  C    0.051869
     5  C    0.090973
     6  C   -0.006877
 Electronic spatial extent (au):  <R**2>=            552.0078
 Charge=             -0.0000 electrons
 Dipole moment (field-independent basis, Debye):
    X=              0.0547    Y=              2.0578    Z=              0.7076  Tot=              2.1768
 Quadrupole moment (field-independent basis, Debye-Ang):
   XX=            -36.3515   YY=            -37.5559   ZZ=            -34.8536
   XY=             -2.6850   XZ=             -1.3878   YZ=             -1.3779
 Traceless Quadrupole moment (field-independent basis, Debye-Ang):
   XX=             -0.0978   YY=             -1.3023   ZZ=              1.4001
   XY=             -2.6850   XZ=             -1.3878   YZ=             -1.3779
 Octapole moment (field-independent basis, Debye-Ang**2):
  XXX=             -7.9390  YYY=              2.3450  ZZZ=             -0.9339  XYY=              2.9114
  XXY=             -4.1176  XXZ=             -1.6695  XZZ=              0.1706  YZZ=             -0.9073
  YYZ=              0.1276  XYZ=              0.4473
 Hexadecapole moment (field-independent basis, Debye-Ang**3):
 XXXX=           -374.8201 YYYY=           -279.5983 ZZZZ=            -82.8202 XXXY=             -6.2537
 XXXZ=             -7.2751 YYYX=             -5.1262 YYYZ=             -0.1635 ZZZX=              0.5530
 ZZZY=             -0.4975 XXYY=           -102.6079 XXZZ=            -72.6809 YYZZ=            -60.4107
 XXYZ=              0.7599 YYXZ=             -2.5293 ZZXY=              0.2505
 N-N= 2.288762622420D+02 E-N=-1.086919702665D+03  KE= 2.678774577311D+02
 Calling FoFJK, ICntrl=      2127 FMM=F ISym2X=0 I1Cent= 0 IOpClX= 0 NMat=1 NMatS=1 NMatT=0.
 ***** Axes restored to original set *****
 -------------------------------------------------------------------
 Center     Atomic                   Forces (Hartrees/Bohr)
 Number     Number              X              Y              Z
 -------------------------------------------------------------------
      1        6           0.025715344    0.009621651   -0.000404645
      2        6          -0.007202016    0.006866936    0.007008827
      3        8          -0.012074250   -0.013113332   -0.007503216
      4        6           0.013164804    0.000164395    0.009777503
      5        6          -0.000999974    0.000218406   -0.002664824
      6        6          -0.025266274   -0.006410218   -0.002091934
      7        1           0.000758891   -0.000250854   -0.000095802
      8        1          -0.000919493   -0.000018235    0.006422152
      9        1          -0.000524806   -0.000704984   -0.000896295
     10        1           0.002878070    0.001751636    0.001167540
     11        1           0.002811589    0.000927422   -0.006564549
     12        1           0.000789702    0.000399430   -0.000040630
     13        1           0.001016997   -0.000061472    0.000706182
     14        1          -0.000148583    0.000609218   -0.004820311
 -------------------------------------------------------------------
 Cartesian Forces:  Max     0.025715344 RMS     0.007515045

 GradGradGradGradGradGradGradGradGradGradGradGradGradGradGradGradGradGrad
 Berny optimization.
 FormGI is forming the generalized inverse of G from B-inverse, IUseBI=4.
 Internal  Forces:  Max     0.023779280 RMS     0.004213735
 Search for a local minimum.
 Step number   1 out of a maximum of   81
 All quantities printed in internal units (Hartrees-Bohrs-Radians)
 Mixed Optimization -- RFO/linear search
 Second derivative matrix not updated -- first step.
 ITU=  0
     Eigenvalues ---    0.00840   0.02203   0.02320   0.02901   0.03633
     Eigenvalues ---    0.04607   0.05193   0.05814   0.06360   0.06442
     Eigenvalues ---    0.06900   0.07018   0.07636   0.07939   0.07984
     Eigenvalues ---    0.09145   0.10448   0.10860   0.12100   0.14575
     Eigenvalues ---    0.14860   0.15681   0.17131   0.22282   0.32277
     Eigenvalues ---    0.34095   0.34169   0.34204   0.34848   0.34976
     Eigenvalues ---    0.35058   0.35337   0.39032   0.39732   0.51794
     Eigenvalues ---    0.85564
 RFO step:  Lambda=-1.14481492D-02 EMin= 8.39683002D-03
 Linear search not attempted -- first point.
 Maximum step size (   0.300) exceeded in Quadratic search.
    -- Step size scaled by   0.907
 Iteration  1 RMS(Cart)=  0.04554544 RMS(Int)=  0.00330163
 Iteration  2 RMS(Cart)=  0.00455293 RMS(Int)=  0.00029145
 Iteration  3 RMS(Cart)=  0.00000349 RMS(Int)=  0.00029144
 Iteration  4 RMS(Cart)=  0.00000000 RMS(Int)=  0.00029144
 Variable       Old X    -DE/DX   Delta X   Delta X   Delta X     New X
                                 (Linear)    (Quad)   (Total)
    R1        2.70445   0.00286   0.00000   0.00912   0.00921   2.71366
    R2        3.93822  -0.02378   0.00000  -0.22761  -0.22770   3.71052
    R3        2.05923  -0.00068   0.00000  -0.00171  -0.00171   2.05752
    R4        2.07170  -0.00646   0.00000  -0.01662  -0.01662   2.05508
    R5        2.33245   0.01101   0.00000   0.01093   0.01093   2.34338
    R6        2.10340  -0.00056   0.00000  -0.00152  -0.00152   2.10189
    R7        4.08153   0.01670   0.00000   0.17344   0.17352   4.25505
    R8        2.56475   0.00197   0.00000   0.00095   0.00085   2.56560
    R9        2.05131  -0.00080   0.00000  -0.00200  -0.00200   2.04931
   R10        2.06987  -0.00710   0.00000  -0.01823  -0.01823   2.05164
   R11        2.70689   0.00208   0.00000   0.00494   0.00493   2.71182
   R12        2.05714   0.00032   0.00000   0.00079   0.00079   2.05793
   R13        2.05581  -0.00033   0.00000  -0.00082  -0.00082   2.05499
   R14        2.07046  -0.00480   0.00000  -0.01233  -0.01233   2.05813
    A1        1.67445   0.00458   0.00000   0.03847   0.03826   1.71271
    A2        2.07033  -0.00097   0.00000  -0.01289  -0.01305   2.05728
    A3        2.03437  -0.00014   0.00000   0.00569   0.00576   2.04014
    A4        1.85410  -0.00238   0.00000  -0.01653  -0.01617   1.83793
    A5        1.71872  -0.00092   0.00000  -0.00101  -0.00139   1.71732
    A6        2.01662   0.00037   0.00000  -0.00453  -0.00463   2.01200
    A7        2.14072  -0.00156   0.00000  -0.00062   0.00036   2.14108
    A8        2.02244   0.00102   0.00000   0.00179   0.00133   2.02377
    A9        2.09622   0.00050   0.00000  -0.00100  -0.00153   2.09469
   A10        1.82403  -0.00520   0.00000  -0.03302  -0.03336   1.79068
   A11        1.68192  -0.00322   0.00000  -0.03083  -0.03096   1.65096
   A12        1.64725   0.00423   0.00000   0.03967   0.03982   1.68707
   A13        1.50399   0.00072   0.00000   0.00265   0.00266   1.50665
   A14        2.13676  -0.00061   0.00000  -0.00075  -0.00091   2.13584
   A15        2.11734   0.00052   0.00000   0.00142   0.00168   2.11901
   A16        2.01985  -0.00012   0.00000  -0.00208  -0.00222   2.01763
   A17        2.10827   0.00113   0.00000   0.00239   0.00317   2.11144
   A18        2.06813   0.00007   0.00000   0.00443   0.00396   2.07209
   A19        2.04994  -0.00082   0.00000  -0.00173  -0.00217   2.04777
   A20        1.79589   0.00474   0.00000   0.03032   0.02976   1.82565
   A21        1.71697  -0.00166   0.00000  -0.00688  -0.00644   1.71054
   A22        1.75589  -0.00131   0.00000  -0.00048  -0.00064   1.75525
   A23        2.07903  -0.00111   0.00000  -0.01443  -0.01466   2.06438
   A24        2.04925  -0.00027   0.00000   0.00578   0.00591   2.05516
   A25        1.97958   0.00016   0.00000  -0.00638  -0.00649   1.97309
    D1       -1.27110  -0.00080   0.00000  -0.01887  -0.01865  -1.28975
    D2        1.63762  -0.00092   0.00000  -0.01815  -0.01807   1.61955
    D3        3.05481  -0.00055   0.00000  -0.01923  -0.01895   3.03586
    D4       -0.31965  -0.00067   0.00000  -0.01851  -0.01837  -0.33803
    D5        0.51912   0.00057   0.00000   0.00182   0.00206   0.52118
    D6       -2.85535   0.00045   0.00000   0.00254   0.00263  -2.85271
    D7        0.97172   0.00058   0.00000   0.03500   0.03568   1.00739
    D8        3.11096   0.00030   0.00000   0.02671   0.02708   3.13804
    D9       -1.14992  -0.00033   0.00000   0.01797   0.01834  -1.13158
   D10        3.10333   0.00067   0.00000   0.03169   0.03196   3.13529
   D11       -1.04061   0.00039   0.00000   0.02340   0.02337  -1.01725
   D12        0.98170  -0.00024   0.00000   0.01467   0.01463   0.99633
   D13       -1.08840  -0.00012   0.00000   0.02072   0.02101  -1.06740
   D14        1.05084  -0.00040   0.00000   0.01242   0.01241   1.06325
   D15        3.07315  -0.00103   0.00000   0.00369   0.00367   3.07682
   D16        1.28419  -0.00287   0.00000  -0.05042  -0.05034   1.23385
   D17       -1.61503  -0.00279   0.00000  -0.05153  -0.05132  -1.66635
   D18       -0.95445  -0.00002   0.00000   0.03514   0.03429  -0.92017
   D19       -3.10723   0.00036   0.00000   0.03370   0.03365  -3.07359
   D20        1.15929   0.00060   0.00000   0.03713   0.03674   1.19603
   D21        1.16249  -0.00113   0.00000  -0.02350  -0.02363   1.13886
   D22       -1.61434  -0.00214   0.00000  -0.03888  -0.03892  -1.65325
   D23        2.89594   0.00170   0.00000   0.00371   0.00359   2.89953
   D24        0.11912   0.00069   0.00000  -0.01167  -0.01169   0.10742
   D25       -0.39757  -0.00008   0.00000  -0.00804  -0.00808  -0.40565
   D26        3.10880  -0.00108   0.00000  -0.02342  -0.02337   3.08543
   D27       -1.28908  -0.00170   0.00000  -0.03978  -0.03970  -1.32878
   D28        3.12010  -0.00232   0.00000  -0.04530  -0.04495   3.07514
   D29        0.61954  -0.00040   0.00000  -0.01880  -0.01863   0.60091
   D30        1.49142  -0.00052   0.00000  -0.02332  -0.02340   1.46802
   D31       -0.38260  -0.00115   0.00000  -0.02884  -0.02865  -0.41125
   D32       -2.88315   0.00077   0.00000  -0.00234  -0.00233  -2.88548
         Item               Value     Threshold  Converged?
 Maximum Force            0.023779     0.000450     NO 
 RMS     Force            0.004214     0.000300     NO 
 Maximum Displacement     0.135543     0.001800     NO 
 RMS     Displacement     0.048533     0.001200     NO 
 Predicted change in Energy=-6.320045D-03
 GradGradGradGradGradGradGradGradGradGradGradGradGradGradGradGradGradGrad

                          Input orientation:                          
 ---------------------------------------------------------------------
 Center     Atomic      Atomic             Coordinates (Angstroms)
 Number     Number       Type             X           Y           Z
 ---------------------------------------------------------------------
      1          6           0       -1.310154    0.851887   -0.260822
      2          6           0       -1.312024   -0.482243    0.270413
      3          8           0       -0.678112   -1.411529   -0.251447
      4          6           0        1.458586   -0.862318    0.199022
      5          6           0        1.358403    0.391766   -0.311340
      6          6           0        0.500572    1.369522    0.294827
      7          1           0       -1.972170    1.583825    0.199035
      8          1           0       -1.181342    0.953049   -1.335917
      9          1           0       -1.721751   -0.596379    1.298151
     10          1           0        1.916507   -1.677778   -0.349945
     11          1           0        1.220078   -1.071362    1.237346
     12          1           0        1.659137    0.562076   -1.344053
     13          1           0        0.501184    2.378183   -0.111577
     14          1           0        0.391348    1.346362    1.378207
 ---------------------------------------------------------------------
                    Distance matrix (angstroms):
                    1          2          3          4          5
     1  C    0.000000
     2  C    1.436007   0.000000
     3  O    2.350025   1.240063   0.000000
     4  C    3.288749   2.797469   2.251673   0.000000
     5  C    2.708405   2.869410   2.720818   1.357657   0.000000
     6  C    1.963523   2.591358   3.069521   2.430654   1.435033
     7  H    1.088792   2.170144   3.293883   4.213514   3.574102
     8  H    1.087499   2.158109   2.649630   3.552578   2.795550
     9  H    2.167322   1.112271   2.038358   3.375403   3.613065
    10  H    4.101035   3.498223   2.610103   1.084450   2.143824
    11  H    3.513612   2.773727   2.436256   1.085681   2.135019
    12  H    3.173967   3.539055   3.248329   2.109550   1.089011
    13  H    2.373351   3.408178   3.971425   3.393219   2.172691
    14  H    2.413717   2.733584   3.377200   2.721717   2.168183
                    6          7          8          9         10
     6  C    0.000000
     7  H    2.483859   0.000000
     8  H    2.379414   1.838306   0.000000
     9  H    3.132115   2.454395   3.103398   0.000000
    10  H    3.421497   5.105021   4.182111   4.137942   0.000000
    11  H    2.713659   4.280018   4.060387   2.980547   1.836368
    12  H    2.163370   4.075719   2.867272   4.444510   2.464029
    13  H    1.087456   2.616288   2.522084   3.972001   4.302415
    14  H    1.089118   2.651990   3.161411   2.871557   3.802373
                   11         12         13         14
    11  H    0.000000
    12  H    3.086182   0.000000
    13  H    3.773031   2.481552   0.000000
    14  H    2.559693   3.103723   1.815536   0.000000
 Stoichiometry    C5H8O
 Framework group  C1[X(C5H8O)]
 Deg. of freedom    36
 Full point group                 C1      NOp   1
 Largest Abelian subgroup         C1      NOp   1
 Largest concise Abelian subgroup C1      NOp   1
                         Standard orientation:                         
 ---------------------------------------------------------------------
 Center     Atomic      Atomic             Coordinates (Angstroms)
 Number     Number       Type             X           Y           Z
 ---------------------------------------------------------------------
      1          6           0       -1.336149    0.796772   -0.271946
      2          6           0       -1.281589   -0.539466    0.251130
      3          8           0       -0.599819   -1.434915   -0.269558
      4          6           0        1.504273   -0.790187    0.207050
      5          6           0        1.351276    0.461224   -0.296730
      6          6           0        0.442713    1.394154    0.306159
      7          1           0       -2.036183    1.494193    0.185245
      8          1           0       -1.201004    0.910849   -1.344968
      9          1           0       -1.696236   -0.679219    1.273717
     10          1           0        2.005248   -1.579918   -0.341932
     11          1           0        1.264948   -1.016874    1.241477
     12          1           0        1.654497    0.652068   -1.325117
     13          1           0        0.400711    2.404403   -0.094084
     14          1           0        0.323426    1.358847    1.388148
 ---------------------------------------------------------------------
 Rotational constants (GHZ):           4.7753414           3.8617091           2.4287924
 Standard basis: 6-31G(d) (6D, 7F)
 There are   106 symmetry adapted cartesian basis functions of A   symmetry.
 There are   106 symmetry adapted basis functions of A   symmetry.
   106 basis functions,   200 primitive gaussians,   106 cartesian basis functions
    23 alpha electrons       23 beta electrons
       nuclear repulsion energy       229.0681052375 Hartrees.
 NAtoms=   14 NActive=   14 NUniq=   14 SFac= 1.00D+00 NAtFMM=   60 NAOKFM=F Big=F
 Integral buffers will be    131072 words long.
 Raffenetti 2 integral format.
 Two-electron integral symmetry is turned on.
 One-electron integrals computed using PRISM.
 NBasis=   106 RedAO= T EigKep=  4.26D-03  NBF=   106
 NBsUse=   106 1.00D-06 EigRej= -1.00D+00 NBFU=   106
 Initial guess from the checkpoint file:  "claisen_ts_QRCF.chk"
 B after Tr=     0.000000    0.000000    0.000000
         Rot=    0.999963   -0.001906    0.003272   -0.007786 Ang=  -0.99 deg.
 ExpMin= 1.61D-01 ExpMax= 5.48D+03 ExpMxC= 8.25D+02 IAcc=3 IRadAn=         5 AccDes= 0.00D+00
 Harris functional with IExCor=  402 and IRadAn=       5 diagonalized for initial guess.
 HarFok:  IExCor=  402 AccDes= 0.00D+00 IRadAn=         5 IDoV= 1 UseB2=F ITyADJ=14
 ICtDFT=  3500011 ScaDFX=  1.000000  1.000000  1.000000  1.000000
 FoFCou: FMM=F IPFlag=           0 FMFlag=      100000 FMFlg1=           0
         NFxFlg=           0 DoJE=T BraDBF=F KetDBF=T FulRan=T
         wScrn=  0.000000 ICntrl=       500 IOpCl=  0 I1Cent=   200000004 NGrid=           0
         NMat0=    1 NMatS0=      1 NMatT0=    0 NMatD0=    1 NMtDS0=    0 NMtDT0=    0
 Petite list used in FoFCou.
 Keep R1 ints in memory in canonical form, NReq=19807700.
 Requested convergence on RMS density matrix=1.00D-08 within 128 cycles.
 Requested convergence on MAX density matrix=1.00D-06.
 Requested convergence on             energy=1.00D-06.
 No special actions if energy rises.
 Integral accuracy reduced to 1.0D-05 until final iterations.
 Initial convergence to 1.0D-05 achieved.  Increase integral accuracy.
 SCF Done:  E(RB3LYP) =  -270.482121883     A.U. after   14 cycles
            NFock= 14  Conv=0.57D-08     -V/T= 2.0096
 Calling FoFJK, ICntrl=      2127 FMM=F ISym2X=0 I1Cent= 0 IOpClX= 0 NMat=1 NMatS=1 NMatT=0.
 ***** Axes restored to original set *****
 -------------------------------------------------------------------
 Center     Atomic                   Forces (Hartrees/Bohr)
 Number     Number              X              Y              Z
 -------------------------------------------------------------------
      1        6           0.032524311    0.014570113    0.004866238
      2        6           0.001711218   -0.011732547    0.000041950
      3        8          -0.020363670    0.001098294    0.000996222
      4        6           0.017431437    0.009549984    0.001515142
      5        6           0.004057795   -0.012661765   -0.001845389
      6        6          -0.037025292   -0.002061442   -0.005300041
      7        1          -0.001029550   -0.000012153   -0.000538081
      8        1          -0.003888102   -0.001360406   -0.000193872
      9        1          -0.000981385   -0.000668368   -0.000882648
     10        1           0.002384976    0.000972734   -0.000116308
     11        1          -0.001709531   -0.000628104   -0.000877451
     12        1           0.000473817    0.000161114    0.000093673
     13        1           0.003129122    0.001592784    0.001859210
     14        1           0.003284852    0.001179762    0.000381355
 -------------------------------------------------------------------
 Cartesian Forces:  Max     0.037025292 RMS     0.009625941

 GradGradGradGradGradGradGradGradGradGradGradGradGradGradGradGradGradGrad
 Berny optimization.
 Using GEDIIS/GDIIS optimizer.
 FormGI is forming the generalized inverse of G from B-inverse, IUseBI=4.
 Internal  Forces:  Max     0.024299473 RMS     0.004191183
 Search for a local minimum.
 Step number   2 out of a maximum of   81
 All quantities printed in internal units (Hartrees-Bohrs-Radians)
 Mixed Optimization -- RFO/linear search
 Update second derivatives using D2CorX and points    1    2
 DE= -1.01D-02 DEPred=-6.32D-03 R= 1.60D+00
 TightC=F SS=  1.41D+00  RLast= 3.36D-01 DXNew= 5.0454D-01 1.0081D+00
 Trust test= 1.60D+00 RLast= 3.36D-01 DXMaxT set to 5.05D-01
 ITU=  1  0
 Use linear search instead of GDIIS.
 Linear search step of   0.600 exceeds DXMaxT=   0.505 but not scaled.
 Quartic linear search produced a step of  2.00000.
 Iteration  1 RMS(Cart)=  0.06312947 RMS(Int)=  0.03279761
 Iteration  2 RMS(Cart)=  0.03778604 RMS(Int)=  0.00386490
 Iteration  3 RMS(Cart)=  0.00481605 RMS(Int)=  0.00175774
 Iteration  4 RMS(Cart)=  0.00000569 RMS(Int)=  0.00175774
 Iteration  5 RMS(Cart)=  0.00000001 RMS(Int)=  0.00175774
 Variable       Old X    -DE/DX   Delta X   Delta X   Delta X     New X
                                 (Linear)    (Quad)   (Total)
    R1        2.71366   0.00760   0.01842   0.00000   0.01900   2.73266
    R2        3.71052  -0.02430  -0.45540   0.00000  -0.45578   3.25474
    R3        2.05752   0.00039  -0.00342   0.00000  -0.00342   2.05410
    R4        2.05508  -0.00040  -0.03325   0.00000  -0.03325   2.02183
    R5        2.34338  -0.00647   0.02187   0.00000   0.02184   2.36522
    R6        2.10189  -0.00039  -0.00303   0.00000  -0.00303   2.09885
    R7        4.25505   0.01554   0.34704   0.00000   0.34731   4.60235
    R8        2.56560  -0.00581   0.00170   0.00000   0.00106   2.56666
    R9        2.04931   0.00033  -0.00400   0.00000  -0.00400   2.04531
   R10        2.05164  -0.00034  -0.03647   0.00000  -0.03647   2.01517
   R11        2.71182   0.00909   0.00986   0.00000   0.00991   2.72173
   R12        2.05793   0.00007   0.00159   0.00000   0.00159   2.05952
   R13        2.05499   0.00078  -0.00164   0.00000  -0.00164   2.05336
   R14        2.05813   0.00003  -0.02465   0.00000  -0.02465   2.03348
    A1        1.71271   0.00453   0.07652   0.00000   0.07528   1.78799
    A2        2.05728  -0.00054  -0.02610   0.00000  -0.02707   2.03021
    A3        2.04014  -0.00211   0.01152   0.00000   0.01198   2.05212
    A4        1.83793  -0.00229  -0.03234   0.00000  -0.03007   1.80786
    A5        1.71732   0.00230  -0.00279   0.00000  -0.00527   1.71206
    A6        2.01200  -0.00014  -0.00926   0.00000  -0.00987   2.00213
    A7        2.14108  -0.00112   0.00072   0.00000   0.00635   2.14743
    A8        2.02377   0.00068   0.00266   0.00000   0.00005   2.02382
    A9        2.09469   0.00048  -0.00306   0.00000  -0.00616   2.08854
   A10        1.79068  -0.00285  -0.06671   0.00000  -0.06872   1.72195
   A11        1.65096  -0.00294  -0.06191   0.00000  -0.06298   1.58798
   A12        1.68707   0.00422   0.07964   0.00000   0.08043   1.76750
   A13        1.50665  -0.00161   0.00532   0.00000   0.00575   1.51240
   A14        2.13584  -0.00135  -0.00183   0.00000  -0.00279   2.13306
   A15        2.11901   0.00113   0.00335   0.00000   0.00495   2.12396
   A16        2.01763   0.00032  -0.00444   0.00000  -0.00528   2.01235
   A17        2.11144   0.00125   0.00634   0.00000   0.01110   2.12255
   A18        2.07209  -0.00014   0.00793   0.00000   0.00504   2.07713
   A19        2.04777  -0.00082  -0.00434   0.00000  -0.00700   2.04077
   A20        1.82565   0.00201   0.05952   0.00000   0.05624   1.88189
   A21        1.71054   0.00062  -0.01287   0.00000  -0.01018   1.70036
   A22        1.75525   0.00236  -0.00128   0.00000  -0.00235   1.75290
   A23        2.06438  -0.00056  -0.02931   0.00000  -0.03067   2.03371
   A24        2.05516  -0.00203   0.01182   0.00000   0.01262   2.06778
   A25        1.97309  -0.00058  -0.01299   0.00000  -0.01365   1.95944
    D1       -1.28975  -0.00217  -0.03729   0.00000  -0.03581  -1.32555
    D2        1.61955  -0.00191  -0.03614   0.00000  -0.03553   1.58402
    D3        3.03586  -0.00209  -0.03790   0.00000  -0.03612   2.99974
    D4       -0.33803  -0.00183  -0.03674   0.00000  -0.03584  -0.37387
    D5        0.52118   0.00243   0.00411   0.00000   0.00569   0.52686
    D6       -2.85271   0.00269   0.00527   0.00000   0.00597  -2.84675
    D7        1.00739  -0.00084   0.07135   0.00000   0.07525   1.08264
    D8        3.13804  -0.00053   0.05416   0.00000   0.05633  -3.08882
    D9       -1.13158  -0.00039   0.03668   0.00000   0.03881  -1.09277
   D10        3.13529  -0.00034   0.06393   0.00000   0.06555  -3.08234
   D11       -1.01725  -0.00004   0.04673   0.00000   0.04663  -0.97062
   D12        0.99633   0.00011   0.02925   0.00000   0.02911   1.02544
   D13       -1.06740  -0.00032   0.04201   0.00000   0.04378  -1.02362
   D14        1.06325  -0.00001   0.02482   0.00000   0.02486   1.08811
   D15        3.07682   0.00013   0.00734   0.00000   0.00734   3.08416
   D16        1.23385  -0.00313  -0.10068   0.00000  -0.09989   1.13395
   D17       -1.66635  -0.00342  -0.10264   0.00000  -0.10106  -1.76740
   D18       -0.92017  -0.00130   0.06857   0.00000   0.06331  -0.85685
   D19       -3.07359  -0.00008   0.06730   0.00000   0.06705  -3.00653
   D20        1.19603  -0.00018   0.07347   0.00000   0.07104   1.26707
   D21        1.13886  -0.00223  -0.04726   0.00000  -0.04790   1.09096
   D22       -1.65325  -0.00297  -0.07784   0.00000  -0.07793  -1.73118
   D23        2.89953   0.00062   0.00719   0.00000   0.00651   2.90604
   D24        0.10742  -0.00012  -0.02339   0.00000  -0.02352   0.08390
   D25       -0.40565   0.00137  -0.01616   0.00000  -0.01617  -0.42182
   D26        3.08543   0.00064  -0.04674   0.00000  -0.04620   3.03922
   D27       -1.32878  -0.00180  -0.07940   0.00000  -0.07877  -1.40755
   D28        3.07514  -0.00362  -0.08991   0.00000  -0.08776   2.98738
   D29        0.60091   0.00146  -0.03727   0.00000  -0.03616   0.56475
   D30        1.46802  -0.00095  -0.04680   0.00000  -0.04711   1.42091
   D31       -0.41125  -0.00277  -0.05730   0.00000  -0.05609  -0.46734
   D32       -2.88548   0.00231  -0.00466   0.00000  -0.00449  -2.88997
         Item               Value     Threshold  Converged?
 Maximum Force            0.024299     0.000450     NO 
 RMS     Force            0.004191     0.000300     NO 
 Maximum Displacement     0.275740     0.001800     NO 
 RMS     Displacement     0.097111     0.001200     NO 
 Predicted change in Energy=-1.807452D-02
 GradGradGradGradGradGradGradGradGradGradGradGradGradGradGradGradGradGrad

                          Input orientation:                          
 ---------------------------------------------------------------------
 Center     Atomic      Atomic             Coordinates (Angstroms)
 Number     Number       Type             X           Y           Z
 ---------------------------------------------------------------------
      1          6           0       -1.198566    0.877096   -0.241540
      2          6           0       -1.351859   -0.457639    0.293328
      3          8           0       -0.805773   -1.463027   -0.214153
      4          6           0        1.519228   -0.860083    0.188700
      5          6           0        1.312089    0.378567   -0.328600
      6          6           0        0.388086    1.303951    0.274956
      7          1           0       -1.826255    1.647728    0.198531
      8          1           0       -1.044790    0.973532   -1.295936
      9          1           0       -1.792321   -0.526058    1.310624
     10          1           0        2.037113   -1.635602   -0.360671
     11          1           0        1.332212   -1.076677    1.215972
     12          1           0        1.607891    0.577483   -1.358508
     13          1           0        0.394038    2.318621   -0.113747
     14          1           0        0.259169    1.277170    1.342942
 ---------------------------------------------------------------------
                    Distance matrix (angstroms):
                    1          2          3          4          5
     1  C    0.000000
     2  C    1.446064   0.000000
     3  O    2.373017   1.251619   0.000000
     4  C    3.254120   2.901042   2.435459   0.000000
     5  C    2.561152   2.860535   2.808899   1.358220   0.000000
     6  C    1.722335   2.476075   3.052981   2.443351   1.440277
     7  H    1.086982   2.160234   3.299771   4.181084   3.426053
     8  H    1.069905   2.160625   2.676603   3.484318   2.616219
     9  H    2.174994   1.110666   2.043558   3.512355   3.625295
    10  H    4.098471   3.646978   2.851886   1.082333   2.140927
    11  H    3.513745   2.904947   2.601058   1.066384   2.122226
    12  H    3.035389   3.544031   3.361399   2.113837   1.089851
    13  H    2.151909   3.304767   3.968689   3.385510   2.157032
    14  H    2.189894   2.589723   3.326759   2.736397   2.170295
                    6          7          8          9         10
     6  C    0.000000
     7  H    2.242170   0.000000
     8  H    2.151746   1.816221   0.000000
     9  H    3.029144   2.441977   3.098665   0.000000
    10  H    3.429911   5.100841   4.144928   4.323064   0.000000
    11  H    2.728419   4.293423   4.020345   3.174089   1.815237
    12  H    2.164228   3.919586   2.682813   4.461335   2.465290
    13  H    1.086591   2.340366   2.297185   3.860207   4.289120
    14  H    1.076072   2.407484   2.959085   2.731536   3.814135
                   11         12         13         14
    11  H    0.000000
    12  H    3.072489   0.000000
    13  H    3.765152   2.460575   0.000000
    14  H    2.590007   3.099426   1.795759   0.000000
 Stoichiometry    C5H8O
 Framework group  C1[X(C5H8O)]
 Deg. of freedom    36
 Full point group                 C1      NOp   1
 Largest Abelian subgroup         C1      NOp   1
 Largest concise Abelian subgroup C1      NOp   1
                         Standard orientation:                         
 ---------------------------------------------------------------------
 Center     Atomic      Atomic             Coordinates (Angstroms)
 Number     Number       Type             X           Y           Z
 ---------------------------------------------------------------------
      1          6           0       -1.202823    0.836311   -0.270475
      2          6           0       -1.303793   -0.515636    0.232661
      3          8           0       -0.690003   -1.480627   -0.275872
      4          6           0        1.586214   -0.767910    0.216403
      5          6           0        1.331855    0.469232   -0.283140
      6          6           0        0.341900    1.332901    0.307165
      7          1           0       -1.883671    1.564159    0.163359
      8          1           0       -1.020141    0.962978   -1.317031
      9          1           0       -1.772875   -0.628248    1.233091
     10          1           0        2.161266   -1.503941   -0.330423
     11          1           0        1.377481   -1.015676    1.232383
     12          1           0        1.650174    0.704985   -1.298457
     13          1           0        0.307703    2.354599   -0.061133
     14          1           0        0.179968    1.276768    1.369501
 ---------------------------------------------------------------------
 Rotational constants (GHZ):           4.8080075           3.8703880           2.4299182
 Standard basis: 6-31G(d) (6D, 7F)
 There are   106 symmetry adapted cartesian basis functions of A   symmetry.
 There are   106 symmetry adapted basis functions of A   symmetry.
   106 basis functions,   200 primitive gaussians,   106 cartesian basis functions
    23 alpha electrons       23 beta electrons
       nuclear repulsion energy       230.1315641877 Hartrees.
 NAtoms=   14 NActive=   14 NUniq=   14 SFac= 1.00D+00 NAtFMM=   60 NAOKFM=F Big=F
 Integral buffers will be    131072 words long.
 Raffenetti 2 integral format.
 Two-electron integral symmetry is turned on.
 One-electron integrals computed using PRISM.
 NBasis=   106 RedAO= T EigKep=  4.27D-03  NBF=   106
 NBsUse=   106 1.00D-06 EigRej= -1.00D+00 NBFU=   106
 Initial guess from the checkpoint file:  "claisen_ts_QRCF.chk"
 B after Tr=     0.000000   -0.000000   -0.000000
         Rot=    0.999971   -0.003459    0.006569    0.001652 Ang=  -0.87 deg.
 ExpMin= 1.61D-01 ExpMax= 5.48D+03 ExpMxC= 8.25D+02 IAcc=3 IRadAn=         5 AccDes= 0.00D+00
 Harris functional with IExCor=  402 and IRadAn=       5 diagonalized for initial guess.
 HarFok:  IExCor=  402 AccDes= 0.00D+00 IRadAn=         5 IDoV= 1 UseB2=F ITyADJ=14
 ICtDFT=  3500011 ScaDFX=  1.000000  1.000000  1.000000  1.000000
 FoFCou: FMM=F IPFlag=           0 FMFlag=      100000 FMFlg1=           0
         NFxFlg=           0 DoJE=T BraDBF=F KetDBF=T FulRan=T
         wScrn=  0.000000 ICntrl=       500 IOpCl=  0 I1Cent=   200000004 NGrid=           0
         NMat0=    1 NMatS0=      1 NMatT0=    0 NMatD0=    1 NMtDS0=    0 NMtDT0=    0
 Petite list used in FoFCou.
 Keep R1 ints in memory in canonical form, NReq=19807700.
 Requested convergence on RMS density matrix=1.00D-08 within 128 cycles.
 Requested convergence on MAX density matrix=1.00D-06.
 Requested convergence on             energy=1.00D-06.
 No special actions if energy rises.
 Integral accuracy reduced to 1.0D-05 until final iterations.
 Initial convergence to 1.0D-05 achieved.  Increase integral accuracy.
 SCF Done:  E(RB3LYP) =  -270.496850966     A.U. after   15 cycles
            NFock= 15  Conv=0.28D-08     -V/T= 2.0092
 Calling FoFJK, ICntrl=      2127 FMM=F ISym2X=0 I1Cent= 0 IOpClX= 0 NMat=1 NMatS=1 NMatT=0.
 ***** Axes restored to original set *****
 -------------------------------------------------------------------
 Center     Atomic                   Forces (Hartrees/Bohr)
 Number     Number              X              Y              Z
 -------------------------------------------------------------------
      1        6           0.032928708    0.017226501    0.010844695
      2        6           0.011641362   -0.044764671   -0.011154753
      3        8          -0.030849654    0.027847774    0.013755415
      4        6           0.021182909    0.024262644   -0.015201924
      5        6           0.015345378   -0.031341407   -0.000184783
      6        6          -0.044492035    0.007859759   -0.007143337
      7        1          -0.006991620   -0.000204614   -0.002399668
      8        1          -0.012107108   -0.004127037   -0.015868293
      9        1          -0.001830811   -0.000552498   -0.000761791
     10        1           0.002582862   -0.000228084   -0.002160788
     11        1          -0.008567414   -0.004178249    0.012468237
     12        1          -0.000344214   -0.000485357    0.000051477
     13        1           0.009546597    0.005821457    0.005006641
     14        1           0.011955040    0.002863780    0.012748870
 -------------------------------------------------------------------
 Cartesian Forces:  Max     0.044764671 RMS     0.016513834

 GradGradGradGradGradGradGradGradGradGradGradGradGradGradGradGradGradGrad
 Berny optimization.
 Using GEDIIS/GDIIS optimizer.
 FormGI is forming the generalized inverse of G from B-inverse, IUseBI=4.
 Internal  Forces:  Max     0.036185780 RMS     0.007543664
 Search for a local minimum.
 Step number   3 out of a maximum of   81
 All quantities printed in internal units (Hartrees-Bohrs-Radians)
 Mixed Optimization -- RFO/linear search
 Update second derivatives using D2CorX and points    2    3
 ITU=  0  1  0
 Use linear search instead of GDIIS.
     Eigenvalues ---    0.00802   0.01551   0.02182   0.02363   0.02875
     Eigenvalues ---    0.03367   0.04789   0.05202   0.05848   0.06220
     Eigenvalues ---    0.06892   0.07190   0.07348   0.07815   0.08150
     Eigenvalues ---    0.10536   0.11403   0.11481   0.12143   0.15026
     Eigenvalues ---    0.15299   0.15698   0.17064   0.22430   0.32275
     Eigenvalues ---    0.34126   0.34182   0.34819   0.34976   0.35000
     Eigenvalues ---    0.35312   0.35865   0.39201   0.43426   0.53318
     Eigenvalues ---    0.94229
 RFO step:  Lambda=-1.76621023D-02 EMin= 8.01788117D-03
 Quartic linear search produced a step of  0.25206.
 Iteration  1 RMS(Cart)=  0.04020862 RMS(Int)=  0.02301446
 Iteration  2 RMS(Cart)=  0.02656486 RMS(Int)=  0.00226608
 Iteration  3 RMS(Cart)=  0.00036689 RMS(Int)=  0.00224988
 Iteration  4 RMS(Cart)=  0.00000018 RMS(Int)=  0.00224988
 Variable       Old X    -DE/DX   Delta X   Delta X   Delta X     New X
                                 (Linear)    (Quad)   (Total)
    R1        2.73266   0.01501   0.00479   0.04171   0.04673   2.77940
    R2        3.25474  -0.00423  -0.11488  -0.20863  -0.32327   2.93147
    R3        2.05410   0.00292  -0.00086   0.00582   0.00496   2.05906
    R4        2.02183   0.01353  -0.00838   0.01900   0.01061   2.03244
    R5        2.36522  -0.03619   0.00550  -0.02811  -0.02220   2.34301
    R6        2.09885   0.00006  -0.00076  -0.00134  -0.00210   2.09675
    R7        4.60235   0.01435   0.08754   0.27708   0.36442   4.96677
    R8        2.56666  -0.01744   0.00027  -0.02726  -0.02717   2.53949
    R9        2.04531   0.00250  -0.00101   0.00436   0.00335   2.04866
   R10        2.01517   0.01436  -0.00919   0.01949   0.01030   2.02547
   R11        2.72173   0.02057   0.00250   0.05572   0.05792   2.77965
   R12        2.05952  -0.00023   0.00040   0.00020   0.00060   2.06012
   R13        2.05336   0.00370  -0.00041   0.00866   0.00825   2.06161
   R14        2.03348   0.01115  -0.00621   0.01697   0.01076   2.04424
    A1        1.78799   0.00214   0.01898   0.06290   0.08210   1.87009
    A2        2.03021  -0.00077  -0.00682  -0.03459  -0.04522   1.98499
    A3        2.05212  -0.00670   0.00302  -0.05000  -0.05550   1.99662
    A4        1.80786   0.00094  -0.00758   0.01712   0.01105   1.81892
    A5        1.71206   0.01091  -0.00133   0.09223   0.09174   1.80380
    A6        2.00213  -0.00160  -0.00249  -0.02701  -0.03504   1.96709
    A7        2.14743  -0.00018   0.00160  -0.02064  -0.01763   2.12980
    A8        2.02382   0.00026   0.00001   0.01401   0.01327   2.03708
    A9        2.08854   0.00018  -0.00155   0.00869   0.00647   2.09501
   A10        1.72195   0.00329  -0.01732  -0.04060  -0.05732   1.66463
   A11        1.58798  -0.00192  -0.01587  -0.04559  -0.06206   1.52592
   A12        1.76750   0.00375   0.02027   0.04724   0.06780   1.83530
   A13        1.51240  -0.00453   0.00145  -0.03424  -0.03224   1.48016
   A14        2.13306  -0.00242  -0.00070  -0.00752  -0.00804   2.12502
   A15        2.12396   0.00168   0.00125   0.00430   0.00485   2.12881
   A16        2.01235   0.00129  -0.00133   0.00954   0.00817   2.02052
   A17        2.12255   0.00154   0.00280   0.00268   0.00580   2.12834
   A18        2.07713  -0.00078   0.00127   0.00170   0.00261   2.07974
   A19        2.04077  -0.00060  -0.00176   0.00048  -0.00171   2.03907
   A20        1.88189  -0.00467   0.01418   0.03961   0.05396   1.93586
   A21        1.70036   0.00762  -0.00256   0.05967   0.05817   1.75853
   A22        1.75290   0.01153  -0.00059   0.08172   0.08172   1.83462
   A23        2.03371  -0.00073  -0.00773  -0.03303  -0.04578   1.98793
   A24        2.06778  -0.00627   0.00318  -0.05375  -0.05664   2.01114
   A25        1.95944  -0.00229  -0.00344  -0.03547  -0.04642   1.91302
    D1       -1.32555  -0.00439  -0.00903  -0.01369  -0.02232  -1.34788
    D2        1.58402  -0.00306  -0.00896  -0.00215  -0.01071   1.57331
    D3        2.99974  -0.00651  -0.00910  -0.05826  -0.06471   2.93504
    D4       -0.37387  -0.00518  -0.00903  -0.04673  -0.05310  -0.42696
    D5        0.52686   0.00735   0.00143   0.11530   0.11335   0.64022
    D6       -2.84675   0.00868   0.00150   0.12683   0.12496  -2.72178
    D7        1.08264  -0.00297   0.01897  -0.00148   0.01996   1.10260
    D8       -3.08882  -0.00193   0.01420   0.00272   0.01897  -3.06985
    D9       -1.09277   0.00029   0.00978  -0.00015   0.01085  -1.08192
   D10       -3.08234  -0.00255   0.01652  -0.00654   0.01082  -3.07152
   D11       -0.97062  -0.00151   0.01175  -0.00233   0.00983  -0.96079
   D12        1.02544   0.00070   0.00734  -0.00520   0.00171   1.02714
   D13       -1.02362  -0.00018   0.01104   0.00174   0.01147  -1.01214
   D14        1.08811   0.00086   0.00627   0.00595   0.01048   1.09859
   D15        3.08416   0.00308   0.00185   0.00308   0.00236   3.08652
   D16        1.13395  -0.00190  -0.02518  -0.02621  -0.05184   1.08212
   D17       -1.76740  -0.00329  -0.02547  -0.03862  -0.06453  -1.83194
   D18       -0.85685  -0.00290   0.01596  -0.03677  -0.02367  -0.88053
   D19       -3.00653  -0.00048   0.01690  -0.02477  -0.00768  -3.01421
   D20        1.26707  -0.00103   0.01791  -0.02927  -0.01075   1.25632
   D21        1.09096  -0.00292  -0.01207  -0.01222  -0.02491   1.06605
   D22       -1.73118  -0.00336  -0.01964  -0.02995  -0.05007  -1.78125
   D23        2.90604  -0.00012   0.00164   0.01311   0.01457   2.92061
   D24        0.08390  -0.00057  -0.00593  -0.00462  -0.01059   0.07330
   D25       -0.42182   0.00363  -0.00408   0.05626   0.05232  -0.36950
   D26        3.03922   0.00318  -0.01165   0.03853   0.02716   3.06638
   D27       -1.40755  -0.00145  -0.01986  -0.01929  -0.03872  -1.44627
   D28        2.98738  -0.00747  -0.02212  -0.10081  -0.11962   2.86776
   D29        0.56475   0.00626  -0.00911   0.08264   0.07037   0.63512
   D30        1.42091  -0.00105  -0.01187  -0.00171  -0.01340   1.40751
   D31       -0.46734  -0.00708  -0.01414  -0.08323  -0.09430  -0.56164
   D32       -2.88997   0.00666  -0.00113   0.10022   0.09569  -2.79428
         Item               Value     Threshold  Converged?
 Maximum Force            0.036186     0.000450     NO 
 RMS     Force            0.007544     0.000300     NO 
 Maximum Displacement     0.244223     0.001800     NO 
 RMS     Displacement     0.059894     0.001200     NO 
 Predicted change in Energy=-1.389639D-02
 GradGradGradGradGradGradGradGradGradGradGradGradGradGradGradGradGradGrad

                          Input orientation:                          
 ---------------------------------------------------------------------
 Center     Atomic      Atomic             Coordinates (Angstroms)
 Number     Number       Type             X           Y           Z
 ---------------------------------------------------------------------
      1          6           0       -1.121869    0.894242   -0.212096
      2          6           0       -1.402727   -0.456050    0.298848
      3          8           0       -0.935010   -1.472036   -0.236216
      4          6           0        1.580013   -0.840683    0.192765
      5          6           0        1.306697    0.361094   -0.342897
      6          6           0        0.311420    1.268549    0.248350
      7          1           0       -1.753445    1.668023    0.223353
      8          1           0       -1.063584    0.960430   -1.283997
      9          1           0       -1.869822   -0.522225    1.303114
     10          1           0        2.155026   -1.586977   -0.343606
     11          1           0        1.361142   -1.068574    1.216964
     12          1           0        1.612603    0.567412   -1.368723
     13          1           0        0.379759    2.295552   -0.113279
     14          1           0        0.270058    1.266304    1.329321
 ---------------------------------------------------------------------
                    Distance matrix (angstroms):
                    1          2          3          4          5
     1  C    0.000000
     2  C    1.470794   0.000000
     3  O    2.373767   1.239870   0.000000
     4  C    3.236363   3.009308   2.628302   0.000000
     5  C    2.489837   2.901817   2.897758   1.343839   0.000000
     6  C    1.551269   2.432096   3.049458   2.461966   1.470926
     7  H    1.089606   2.154157   3.277348   4.172108   3.375378
     8  H    1.075522   2.151007   2.651653   3.523271   2.619753
     9  H    2.204920   1.109553   2.036062   3.638084   3.685089
    10  H    4.112394   3.788053   3.094037   1.084107   2.124769
    11  H    3.472780   2.976087   2.747149   1.071832   2.116621
    12  H    2.986962   3.594507   3.454310   2.102864   1.090167
    13  H    2.056288   3.304303   3.992299   3.371980   2.157329
    14  H    2.109943   2.612774   3.376626   2.728945   2.165719
                    6          7          8          9         10
     6  C    0.000000
     7  H    2.103301   0.000000
     8  H    2.081744   1.802415   0.000000
     9  H    3.012841   2.444711   3.088919   0.000000
    10  H    3.450119   5.117872   4.211064   4.477140   0.000000
    11  H    2.739028   4.263435   4.031248   3.277963   1.826027
    12  H    2.190797   3.882825   2.706218   4.522533   2.446728
    13  H    1.090955   2.248927   2.288312   3.873842   4.275355
    14  H    1.081764   2.340750   2.949845   2.789016   3.806967
                   11         12         13         14
    11  H    0.000000
    12  H    3.070092   0.000000
    13  H    3.748334   2.466275   0.000000
    14  H    2.579679   3.093593   1.775523   0.000000
 Stoichiometry    C5H8O
 Framework group  C1[X(C5H8O)]
 Deg. of freedom    36
 Full point group                 C1      NOp   1
 Largest Abelian subgroup         C1      NOp   1
 Largest concise Abelian subgroup C1      NOp   1
                         Standard orientation:                         
 ---------------------------------------------------------------------
 Center     Atomic      Atomic             Coordinates (Angstroms)
 Number     Number       Type             X           Y           Z
 ---------------------------------------------------------------------
      1          6           0       -1.043484    0.937317   -0.241612
      2          6           0       -1.370280   -0.414105    0.238072
      3          8           0       -0.903504   -1.431724   -0.294704
      4          6           0        1.605999   -0.858736    0.236384
      5          6           0        1.377050    0.356029   -0.290715
      6          6           0        0.378910    1.275246    0.277072
      7          1           0       -1.675137    1.717631    0.181904
      8          1           0       -0.944013    1.017727   -1.309502
      9          1           0       -1.875676   -0.485077    1.223285
     10          1           0        2.185449   -1.608947   -0.289645
     11          1           0        1.344608   -1.096791    1.248229
     12          1           0        1.725023    0.570742   -1.301297
     13          1           0        0.481314    2.305722   -0.066167
     14          1           0        0.297296    1.258278    1.355620
 ---------------------------------------------------------------------
 Rotational constants (GHZ):           4.8889218           3.7156673           2.3857522
 Standard basis: 6-31G(d) (6D, 7F)
 There are   106 symmetry adapted cartesian basis functions of A   symmetry.
 There are   106 symmetry adapted basis functions of A   symmetry.
   106 basis functions,   200 primitive gaussians,   106 cartesian basis functions
    23 alpha electrons       23 beta electrons
       nuclear repulsion energy       230.0334785149 Hartrees.
 NAtoms=   14 NActive=   14 NUniq=   14 SFac= 1.00D+00 NAtFMM=   60 NAOKFM=F Big=F
 Integral buffers will be    131072 words long.
 Raffenetti 2 integral format.
 Two-electron integral symmetry is turned on.
 One-electron integrals computed using PRISM.
 NBasis=   106 RedAO= T EigKep=  4.33D-03  NBF=   106
 NBsUse=   106 1.00D-06 EigRej= -1.00D+00 NBFU=   106
 Initial guess from the checkpoint file:  "claisen_ts_QRCF.chk"
 B after Tr=     0.000000   -0.000000    0.000000
         Rot=    0.999176    0.000943    0.000307    0.040577 Ang=   4.65 deg.
 ExpMin= 1.61D-01 ExpMax= 5.48D+03 ExpMxC= 8.25D+02 IAcc=3 IRadAn=         5 AccDes= 0.00D+00
 Harris functional with IExCor=  402 and IRadAn=       5 diagonalized for initial guess.
 HarFok:  IExCor=  402 AccDes= 0.00D+00 IRadAn=         5 IDoV= 1 UseB2=F ITyADJ=14
 ICtDFT=  3500011 ScaDFX=  1.000000  1.000000  1.000000  1.000000
 FoFCou: FMM=F IPFlag=           0 FMFlag=      100000 FMFlg1=           0
         NFxFlg=           0 DoJE=T BraDBF=F KetDBF=T FulRan=T
         wScrn=  0.000000 ICntrl=       500 IOpCl=  0 I1Cent=   200000004 NGrid=           0
         NMat0=    1 NMatS0=      1 NMatT0=    0 NMatD0=    1 NMtDS0=    0 NMtDT0=    0
 Petite list used in FoFCou.
 Keep R1 ints in memory in canonical form, NReq=19807700.
 Requested convergence on RMS density matrix=1.00D-08 within 128 cycles.
 Requested convergence on MAX density matrix=1.00D-06.
 Requested convergence on             energy=1.00D-06.
 No special actions if energy rises.
 Integral accuracy reduced to 1.0D-05 until final iterations.
 Initial convergence to 1.0D-05 achieved.  Increase integral accuracy.
 SCF Done:  E(RB3LYP) =  -270.511419863     A.U. after   15 cycles
            NFock= 15  Conv=0.17D-08     -V/T= 2.0089
 Calling FoFJK, ICntrl=      2127 FMM=F ISym2X=0 I1Cent= 0 IOpClX= 0 NMat=1 NMatS=1 NMatT=0.
 ***** Axes restored to original set *****
 -------------------------------------------------------------------
 Center     Atomic                   Forces (Hartrees/Bohr)
 Number     Number              X              Y              Z
 -------------------------------------------------------------------
      1        6           0.000062729    0.008779022    0.002346472
      2        6           0.013826531   -0.039730576   -0.012915237
      3        8          -0.026306323    0.023517058    0.013628691
      4        6           0.020190425    0.015891122   -0.010215658
      5        6           0.007103859   -0.020495019   -0.000329797
      6        6          -0.004757294    0.014141971    0.000878190
      7        1          -0.009890302   -0.000609127   -0.003726810
      8        1          -0.011848444   -0.003630650   -0.013022392
      9        1          -0.003216586   -0.000076916   -0.000104508
     10        1           0.002249141   -0.000252565   -0.000664514
     11        1          -0.007858823   -0.004215023    0.008608695
     12        1          -0.000425242    0.000007064    0.000033991
     13        1           0.010625266    0.004930234    0.004974386
     14        1           0.010245063    0.001743405    0.010508491
 -------------------------------------------------------------------
 Cartesian Forces:  Max     0.039730576 RMS     0.011846038

 GradGradGradGradGradGradGradGradGradGradGradGradGradGradGradGradGradGrad
 Berny optimization.
 Using GEDIIS/GDIIS optimizer.
 FormGI is forming the generalized inverse of G from B-inverse, IUseBI=4.
 Internal  Forces:  Max     0.031770715 RMS     0.007308676
 Search for a local minimum.
 Step number   4 out of a maximum of   81
 All quantities printed in internal units (Hartrees-Bohrs-Radians)
 Mixed Optimization -- RFO/linear search
 Update second derivatives using D2CorX and points    3    4
 DE= -1.46D-02 DEPred=-1.39D-02 R= 1.05D+00
 TightC=F SS=  1.41D+00  RLast= 6.25D-01 DXNew= 8.4853D-01 1.8759D+00
 Trust test= 1.05D+00 RLast= 6.25D-01 DXMaxT set to 8.49D-01
 ITU=  1  0  1  0
 Use linear search instead of GDIIS.
     Eigenvalues ---    0.00805   0.01839   0.02174   0.02454   0.02826
     Eigenvalues ---    0.03167   0.04687   0.05142   0.05771   0.06106
     Eigenvalues ---    0.06748   0.06881   0.07252   0.08043   0.08729
     Eigenvalues ---    0.10841   0.11816   0.12341   0.14855   0.15213
     Eigenvalues ---    0.15672   0.16530   0.17103   0.22401   0.32288
     Eigenvalues ---    0.32941   0.34131   0.34213   0.34846   0.34976
     Eigenvalues ---    0.35022   0.35329   0.37178   0.39355   0.51684
     Eigenvalues ---    0.82227
 RFO step:  Lambda=-2.08348387D-02 EMin= 8.05272141D-03
 Quartic linear search produced a step of  0.21338.
 Iteration  1 RMS(Cart)=  0.07059890 RMS(Int)=  0.01291470
 Iteration  2 RMS(Cart)=  0.01424551 RMS(Int)=  0.00298802
 Iteration  3 RMS(Cart)=  0.00005704 RMS(Int)=  0.00298767
 Iteration  4 RMS(Cart)=  0.00000016 RMS(Int)=  0.00298767
 Variable       Old X    -DE/DX   Delta X   Delta X   Delta X     New X
                                 (Linear)    (Quad)   (Total)
    R1        2.77940   0.01359   0.00997   0.05183   0.06167   2.84106
    R2        2.93147   0.02882  -0.06898   0.14572   0.07671   3.00818
    R3        2.05906   0.00381   0.00106   0.01236   0.01341   2.07247
    R4        2.03244   0.01211   0.00226   0.03784   0.04010   2.07254
    R5        2.34301  -0.03177  -0.00474  -0.04960  -0.05412   2.28890
    R6        2.09675   0.00126  -0.00045   0.00270   0.00226   2.09901
    R7        4.96677   0.01310   0.07776   0.22798   0.30581   5.27258
    R8        2.53949  -0.00882  -0.00580  -0.02879  -0.03449   2.50500
    R9        2.04866   0.00170   0.00072   0.00633   0.00704   2.05571
   R10        2.02547   0.01073   0.00220   0.03447   0.03667   2.06214
   R11        2.77965   0.01333   0.01236   0.06224   0.07436   2.85401
   R12        2.06012  -0.00015   0.00013  -0.00036  -0.00023   2.05989
   R13        2.06161   0.00366   0.00176   0.01310   0.01486   2.07647
   R14        2.04424   0.01011   0.00230   0.03231   0.03460   2.07884
    A1        1.87009  -0.00244   0.01752   0.01543   0.03305   1.90314
    A2        1.98499  -0.00139  -0.00965  -0.02990  -0.04377   1.94121
    A3        1.99662  -0.00658  -0.01184  -0.07939  -0.09773   1.89889
    A4        1.81892   0.00613   0.00236   0.06137   0.06363   1.88254
    A5        1.80380   0.01023   0.01958   0.09954   0.12042   1.92422
    A6        1.96709  -0.00321  -0.00748  -0.03308  -0.05316   1.91393
    A7        2.12980   0.00223  -0.00376  -0.00606  -0.01029   2.11951
    A8        2.03708  -0.00098   0.00283   0.00670   0.00940   2.04649
    A9        2.09501  -0.00066   0.00138   0.00597   0.00736   2.10237
   A10        1.66463   0.00541  -0.01223  -0.00584  -0.01772   1.64691
   A11        1.52592   0.00056  -0.01324  -0.01469  -0.02784   1.49808
   A12        1.83530   0.00160   0.01447   0.02442   0.03896   1.87425
   A13        1.48016  -0.00441  -0.00688  -0.04636  -0.05278   1.42738
   A14        2.12502  -0.00042  -0.00171  -0.00890  -0.01067   2.11435
   A15        2.12881   0.00023   0.00103   0.00669   0.00646   2.13527
   A16        2.02052   0.00052   0.00174   0.00773   0.00952   2.03004
   A17        2.12834   0.00155   0.00124   0.01386   0.01438   2.14273
   A18        2.07974  -0.00045   0.00056  -0.00359  -0.00290   2.07684
   A19        2.03907  -0.00075  -0.00036  -0.00406  -0.00437   2.03470
   A20        1.93586  -0.00677   0.01151  -0.00380   0.00855   1.94441
   A21        1.75853   0.01004   0.01241   0.09334   0.10483   1.86336
   A22        1.83462   0.00973   0.01744   0.08292   0.10033   1.93495
   A23        1.98793  -0.00162  -0.00977  -0.03210  -0.04612   1.94180
   A24        2.01114  -0.00523  -0.01209  -0.07405  -0.08986   1.92128
   A25        1.91302  -0.00331  -0.00991  -0.03426  -0.05757   1.85546
    D1       -1.34788  -0.00247  -0.00476  -0.00840  -0.01241  -1.36028
    D2        1.57331   0.00043  -0.00229   0.02618   0.02458   1.59789
    D3        2.93504  -0.00767  -0.01381  -0.07667  -0.08601   2.84903
    D4       -0.42696  -0.00476  -0.01133  -0.04210  -0.04902  -0.47598
    D5        0.64022   0.00495   0.02419   0.08034   0.09882   0.73904
    D6       -2.72178   0.00785   0.02666   0.11492   0.13581  -2.58597
    D7        1.10260  -0.00342   0.00426  -0.03424  -0.02993   1.07268
    D8       -3.06985  -0.00274   0.00405  -0.02101  -0.01741  -3.08726
    D9       -1.08192   0.00066   0.00231   0.00436   0.00849  -1.07343
   D10       -3.07152  -0.00306   0.00231  -0.02993  -0.02884  -3.10037
   D11       -0.96079  -0.00238   0.00210  -0.01670  -0.01632  -0.97711
   D12        1.02714   0.00102   0.00036   0.00867   0.00957   1.03671
   D13       -1.01214   0.00008   0.00245  -0.00070   0.00115  -1.01099
   D14        1.09859   0.00076   0.00224   0.01253   0.01367   1.11226
   D15        3.08652   0.00416   0.00050   0.03790   0.03957   3.12609
   D16        1.08212   0.00084  -0.01106   0.01360   0.00177   1.08388
   D17       -1.83194  -0.00213  -0.01377  -0.02212  -0.03654  -1.86848
[...]
 ! D5    D(8,1,2,3)            -10.4644         -DE/DX =    0.0                 !
 ! D6    D(8,1,2,9)            170.5405         -DE/DX =    0.0                 !
 ! D7    D(2,1,6,5)             65.4301         -DE/DX =    0.0                 !
 ! D8    D(2,1,6,13)          -173.0038         -DE/DX =    0.0                 !
 ! D9    D(2,1,6,14)           -57.2993         -DE/DX =    0.0                 !
 ! D10   D(7,1,6,5)           -175.7822         -DE/DX =    0.0                 !
 ! D11   D(7,1,6,13)           -54.2161         -DE/DX =    0.0                 !
 ! D12   D(7,1,6,14)            61.4884         -DE/DX =    0.0                 !
 ! D13   D(8,1,6,5)            -57.0619         -DE/DX =    0.0                 !
 ! D14   D(8,1,6,13)            64.5042         -DE/DX =    0.0                 !
 ! D15   D(8,1,6,14)          -179.7913         -DE/DX =    0.0                 !
 ! D16   D(1,2,3,4)             87.7972         -DE/DX =    0.0                 !
 ! D17   D(9,2,3,4)            -93.2653         -DE/DX =    0.0                 !
 ! D18   D(2,3,4,5)            -70.4124         -DE/DX =    0.0                 !
 ! D19   D(2,3,4,10)           178.7971         -DE/DX =    0.0                 !
 ! D20   D(2,3,4,11)            52.3215         -DE/DX =    0.0                 !
 ! D21   D(3,4,5,6)             77.0632         -DE/DX =    0.0                 !
 ! D22   D(3,4,5,12)          -102.2792         -DE/DX =    0.0                 !
 ! D23   D(10,4,5,6)           179.7672         -DE/DX =    0.0                 !
 ! D24   D(10,4,5,12)            0.4248         -DE/DX =    0.0                 !
 ! D25   D(11,4,5,6)            -0.4298         -DE/DX =    0.0                 !
 ! D26   D(11,4,5,12)         -179.7722         -DE/DX =    0.0                 !
 ! D27   D(4,5,6,1)           -121.2721         -DE/DX =    0.0                 !
 ! D28   D(4,5,6,13)           118.1907         -DE/DX =    0.0                 !
 ! D29   D(4,5,6,14)             1.4304         -DE/DX =    0.0                 !
 ! D30   D(12,5,6,1)            58.0906         -DE/DX =    0.0                 !
 ! D31   D(12,5,6,13)          -62.4466         -DE/DX =    0.0                 !
 ! D32   D(12,5,6,14)         -179.2069         -DE/DX =    0.0                 !
 --------------------------------------------------------------------------------
 GradGradGradGradGradGradGradGradGradGradGradGradGradGradGradGradGradGrad


 ----------------------------------------------------------------------

 Electric dipole moment (input orientation):
 (Debye = 10**-18 statcoulomb cm , SI units = C m)
                  (au)            (Debye)         (10**-30 SI)
   Tot        0.107471D+01      0.273164D+01      0.911176D+01
   x          0.542578D+00      0.137910D+01      0.460017D+01
   y          0.820355D+00      0.208514D+01      0.695526D+01
   z          0.433155D+00      0.110097D+01      0.367244D+01

 Dipole polarizability, Alpha (input orientation).
 (esu units = cm**3 , SI units = C**2 m**2 J**-1)
 Alpha(0;0):
               (au)            (10**-24 esu)      (10**-40 SI)
   iso        0.532424D+02      0.788971D+01      0.877849D+01
   aniso      0.163482D+02      0.242255D+01      0.269546D+01
   xx         0.553333D+02      0.819955D+01      0.912323D+01
   yx        -0.702287D+01     -0.104068D+01     -0.115791D+01
   yy         0.526681D+02      0.780461D+01      0.868379D+01
   zx         0.562854D+01      0.834063D+00      0.928020D+00
   zy        -0.214151D+01     -0.317339D+00     -0.353088D+00
   zz         0.517259D+02      0.766498D+01      0.852844D+01

 ----------------------------------------------------------------------

 Dipole orientation:
     6         -2.02616936          1.96134105          0.03256378
     6         -2.60119053          0.16858507         -2.12336602
     8         -2.45059244          0.70144519         -4.34217457
     6          3.19669332         -2.27485190          1.24916688
     6          2.21509179          0.04554910          1.21940926
     6         -0.39733633          0.72913779          2.11755592
     1         -3.84879054          2.53944604          0.85340888
     1         -1.12904716          3.65577412         -0.74733080
     1         -3.23128799         -1.75048511         -1.52068319
     1          5.09593516         -2.65422238          0.56756741
     1          2.13971921         -3.88839469          1.96319329
     1          3.34338972          1.60495290          0.47896102
     1         -0.26941724          2.06289584          3.70400709
     1         -1.35412372         -0.96247127          2.84513861

 Electric dipole moment (dipole orientation):
 (Debye = 10**-18 statcoulomb cm , SI units = C m)
                  (au)            (Debye)         (10**-30 SI)
   Tot        0.107471D+01      0.273164D+01      0.911176D+01
   x          0.000000D+00      0.000000D+00      0.000000D+00
   y          0.000000D+00      0.000000D+00      0.000000D+00
   z          0.107471D+01      0.273164D+01      0.911176D+01

 Dipole polarizability, Alpha (dipole orientation).
 (esu units = cm**3 , SI units = C**2 m**2 J**-1)
 Alpha(0;0):
               (au)            (10**-24 esu)      (10**-40 SI)
   iso        0.532424D+02      0.788971D+01      0.877849D+01
   aniso      0.163482D+02      0.242255D+01      0.269546D+01
   xx         0.521251D+02      0.772414D+01      0.859427D+01
   yx        -0.740459D+01     -0.109725D+01     -0.122085D+01
   yy         0.588478D+02      0.872034D+01      0.970268D+01
   zx        -0.636022D+00     -0.942487D-01     -0.104866D+00
   zy        -0.272948D+01     -0.404467D+00     -0.450030D+00
   zz         0.487544D+02      0.722465D+01      0.803851D+01

 ----------------------------------------------------------------------
 1\1\GINC-ROBERTS-IMAC-PRO\Freq\RB3LYP\6-31G(d)\C5H8O1\RPATON\07-May-20
 18\0\\#N Geom=AllCheck Guess=TCheck SCRF=Check GenChk RB3LYP/6-31G(d) 
 Freq\\claisen_ts_QRCF\\0,1\C,-1.153800279,0.9145248722,-0.2439975293\C
 ,-1.7182142319,-0.4274598678,0.1739634445\O,-2.3232286787,-1.180730846
 1,-0.554743773\C,2.0486856909,-0.6639276311,0.3312875228\C,1.278390223
 9,0.1846947512,-0.3501070985\C,0.2876846121,1.1387160091,0.2632642884\
 H,-1.8078047379,1.689885062,0.1844898596\H,-1.2199491097,0.9933846355,
 -1.3344536203\H,-1.5511251635,-0.6862198546,1.2460238712\H,2.744185341
 3,-1.3326867692,-0.1682473618\H,2.0162568567,-0.7211308612,1.417726822
 \H,1.3425155881,0.2041069532,-1.4393679522\H,0.5730562625,2.1736328684
 ,0.0286978355\H,0.3136096253,1.0482716785,1.357362691\\Version=EM64M-G
 16RevB.01\State=1-A\HF=-270.5334312\RMSD=1.288e-09\RMSF=1.075e-05\Zero
 Point=0.1183898\Thermal=0.1254271\Dipole=0.5425785,0.8203554,0.4331553
 \DipoleDeriv=0.0593195,-0.100485,-0.0276788,-0.1522718,-0.2304305,0.04
 47706,0.0768571,0.0609009,0.0680934,0.4557229,0.3409389,0.2007842,0.54
 60345,0.873706,0.0688221,0.0972748,-0.0535787,0.802177,-0.5310528,-0.2
 430975,-0.1544184,-0.3524652,-0.6624554,-0.1535219,-0.1915357,-0.16501
 67,-0.5774506,-0.1966107,-0.1147762,-0.0573975,-0.1050393,-0.159352,0.
 0218027,-0.02028,0.0286906,0.1010941,-0.036551,-0.1646798,-0.0069905,-
 0.2317467,0.0121764,-0.0250938,-0.1244404,0.0068975,0.1231671,0.168637
 6,0.0600292,0.0060565,0.056073,0.1269802,-0.0138574,0.0112023,0.068017
 6,0.1027083,-0.0818761,0.0690868,0.0267958,0.0553633,-0.0302682,-0.035
 7468,0.0687652,-0.0388151,0.0395338,0.0195647,-0.034162,-0.0074264,-0.
 0285623,0.0419417,-0.0036118,-0.0193175,0.0304863,-0.1048798,0.0226709
 ,-0.0057535,-0.0534317,-0.0304719,-0.0330299,0.0581089,-0.019851,0.087
 0035,-0.260435,0.0230623,0.1071584,0.0368633,0.1229846,0.0361603,-0.02
 52063,0.0514788,-0.0445697,0.0155374,0.0869256,0.0405232,0.0402706,0.0
 423931,0.0816448,-0.0166363,0.003972,0.0140037,-0.1048958,0.0612675,0.
 0479351,-0.0024228,0.0610886,0.0523524,0.0100731,0.0262392,0.002806,-0
 .1229282,-0.043442,-0.0260453,0.0037143,-0.011148,-0.1576936,0.0265425
 ,0.0388974,0.0214626,0.0622574,-0.0076382,0.0233277,-0.0047185,0.02776
 82,0.0482678,0.0435544,0.0007379,-0.0182885,-0.1439791\Polar=55.333285
 4,-7.0228693,52.6680863,5.6285366,-2.1415117,51.7258592\Quadrupole=-2.
 052046,-0.0141482,2.0661942,-3.9634027,-2.0481479,-1.1409967\PG=C01 [X
 (C5H8O1)]\NImag=0\\0.44657176,-0.02827147,0.48365697,-0.01227006,0.012
 38872,0.60186184,-0.09314241,-0.02220376,0.01317114,0.40876960,-0.0211
 1661,-0.15342600,0.04379728,0.25848431,0.62291803,0.01740782,0.0466411
 3,-0.11573592,0.21884844,0.13796540,0.71792368,0.00500756,-0.02982264,
 -0.01397866,-0.24474575,-0.22918510,-0.21609070,0.23639201,-0.03654386
 ,-0.02988878,-0.02785525,-0.22822272,-0.35764685,-0.24936689,0.2722479
 8,0.37872103,-0.00584768,-0.01033697,0.01761558,-0.21817268,-0.2523215
 6,-0.36029712,0.25304749,0.29256298,0.36870688,0.00023986,0.00127471,0
 .00124657,0.00001384,0.00086206,-0.00009109,-0.00022677,-0.00047419,-0
 .00013924,0.44805657,-0.00100062,-0.00102273,-0.00212407,0.00064671,-0
 .00225010,0.00035363,-0.00000662,0.00127909,0.00037689,-0.35400231,0.4
 7533656,0.00175694,-0.00176403,-0.00158396,-0.00070859,-0.00052090,0.0
 0076742,0.00025719,0.00035215,-0.00011686,0.04116134,-0.09230621,0.697
 34271,-0.02771019,0.02178977,0.01040450,0.00108807,-0.00096075,0.00061
 760,-0.00022086,0.00139498,0.00039412,-0.23158274,0.19929603,-0.132512
 10,0.44073034,0.00432529,0.00346892,0.00603514,-0.00140077,0.00295115,
 -0.00045859,-0.00017626,-0.00134807,-0.00037748,0.19952724,-0.26424198
 ,0.15244780,-0.29979465,0.46703374,-0.00523046,0.00842745,0.00796117,0
 .00106909,0.00197139,-0.00103169,-0.00045743,-0.00111361,-0.00031956,-
 0.13372943,0.15330797,-0.23717665,0.08014613,-0.12454883,0.68874479,-0
 .15344598,-0.00827319,-0.02731805,-0.01589918,-0.01275397,-0.00361746,
 0.00082603,0.00239424,0.00207632,-0.01160552,0.01823308,0.00664014,-0.
 12980959,0.05705398,0.03716613,0.43669717,-0.02282274,-0.07223260,-0.0
 0116858,-0.03187041,-0.00207289,-0.01361249,0.00029311,-0.00814565,0.0
 0094910,0.01965951,-0.01357946,-0.00751018,0.05754273,-0.13267437,-0.0
 3350334,0.00714497,0.54466689,-0.02750299,-0.00001959,-0.09669791,0.00
 726221,-0.00885437,0.00528003,-0.00010474,0.00403187,0.00138958,-0.009
 90368,0.00967046,0.01202271,0.03886802,-0.03670866,-0.11931665,-0.0176
 6920,-0.02854951,0.57892147,-0.12572011,0.10271602,0.05989750,0.008618
 82,-0.00902605,-0.00712541,-0.00336106,-0.00072738,0.00080872,-0.00079
 593,0.00059581,0.00115495,-0.00545034,-0.00218983,-0.00467769,-0.02160
 004,0.02259193,0.01266688,0.14495259,0.11041485,-0.17643295,-0.0704527
 8,0.01841082,-0.02244938,-0.01716241,-0.00447665,-0.00137755,0.0031920
 8,-0.00027751,0.00053552,0.00001218,-0.00090092,0.00039223,-0.00047432
 ,-0.00451033,0.00466727,0.00273343,-0.11413767,0.18937539,0.05932353,-
 0.06575731,-0.08730099,-0.00751688,0.00517916,0.00395469,0.00090640,-0
 .00002106,0.00076126,-0.00014487,0.00022872,0.00032821,-0.00135968,-0.
 00096959,-0.00024229,-0.00890067,0.00765789,0.00374575,-0.06342049,0.0
 7809684,0.08962537,-0.05142477,0.00090009,-0.01325468,0.00058422,0.000
 91413,0.01345410,-0.00037854,0.00125816,-0.00129991,-0.00019975,0.0003
 3817,0.00018749,0.00238464,-0.00051277,-0.00133262,-0.00112036,0.00282
 364,-0.03160033,0.00089217,-0.00254321,0.01916973,0.05384492,0.0007072
 5,-0.04965935,0.01584869,0.00145724,-0.00369268,0.03582578,0.00251950,
 0.00354217,-0.00356337,0.00000296,0.00002324,-0.00003804,0.00023815,-0
 .00013536,0.00080159,-0.00006330,-0.00017961,-0.00605231,-0.00177910,0
 .00263405,-0.02367519,0.00037924,0.05198847,-0.01159874,0.01913084,-0.
 31272362,-0.00136458,-0.00016516,-0.01260031,0.00001053,-0.00117202,0.
 00361170,-0.00011371,0.00020580,0.00029768,0.00096061,-0.00038244,0.00
 049877,-0.00099812,0.00047427,-0.00781861,-0.00026981,0.00119407,-0.01
 110650,0.01513752,-0.02059104,0.33814191,0.01353298,-0.00913427,0.0061
 0160,-0.06143945,0.00777453,-0.01646798,0.00727488,-0.00708330,-0.0315
 8313,-0.00015418,0.00001385,0.00008813,-0.00015897,0.00018699,-0.00005
 455,0.00152123,0.00256142,0.00011499,-0.00082319,-0.00270859,0.0010843
 2,0.00073976,-0.00241680,0.00037638,0.03892475,-0.00353788,0.00040876,
 0.02890778,0.00529416,-0.08556690,0.06264841,-0.01176529,0.01471168,-0
 .03153869,0.00000251,0.00022331,-0.00005948,0.00014741,-0.00011527,-0.
 00000351,0.00101290,-0.00006990,0.00128679,0.00139898,0.00167313,-0.00
 149235,-0.00261646,-0.00512089,0.00172787,0.01067171,0.07391032,-0.006
 16980,0.00278756,-0.00690809,-0.01206706,0.06912976,-0.23526255,-0.023
 51915,-0.01619772,-0.03256840,0.00003412,-0.00034062,-0.00020781,-0.00
 001372,0.00024491,0.00037083,-0.00054858,-0.00035717,-0.00038379,0.000
 51934,0.00233901,-0.00074514,-0.00022148,0.00169420,0.00017184,0.04050
 090,-0.05961954,0.27415421,0.00087217,-0.00107253,-0.00039249,0.000141
 67,0.00014955,0.00005426,-0.00014632,-0.00026988,-0.00013385,-0.160522
 40,0.12209066,0.08557580,-0.00863921,0.01074434,0.01030227,0.00672013,
 0.00787052,-0.00182138,0.00031333,-0.00001390,0.00012900,-0.00006818,-
 0.00000163,0.00000717,-0.00002736,0.00002913,-0.00000622,0.16460178,0.
 00116160,-0.00183367,-0.00102264,-0.00016739,-0.00066272,0.00012370,0.
 00004954,0.00024040,0.00006771,0.12184113,-0.15191358,-0.08004769,0.01
 298415,-0.00952563,-0.01125307,0.00698598,0.00672733,0.00337337,0.0007
 7882,0.00010212,0.00023682,0.00002309,0.00001366,0.00007639,-0.0000087
 8,0.00005396,-0.00007362,-0.13640553,0.15574799,-0.00011911,0.00007870
 ,0.00045940,-0.00002897,0.00013264,-0.00031055,0.00000149,-0.00004397,
 0.00009122,0.08864678,-0.08305352,-0.12296767,-0.01286958,0.01239150,0
 .01109162,-0.00043770,0.00179680,-0.00167718,-0.00016204,-0.00004527,-
 0.00003148,0.00007731,-0.00000738,0.00000797,0.00000116,-0.00003316,0.
 00008977,-0.09270574,0.08651610,0.12075280,-0.00055509,0.00069790,0.00
 020930,-0.00005289,0.00029984,-0.00040167,0.00009650,-0.00001914,0.000
 15454,-0.04761744,0.01154862,0.01398317,0.00512896,0.00186375,-0.01932
 770,-0.00321893,-0.00524923,-0.00176782,-0.00023488,-0.00000096,-0.000
 12170,-0.00000682,0.00000877,0.00004920,-0.00002011,-0.00009792,0.0001
 5512,0.00201287,-0.00155951,0.01841637,0.03928441,-0.00031659,0.000692
 26,0.00014976,0.00000497,0.00038206,-0.00012306,0.00003891,-0.00015478
 ,-0.00002516,0.01164940,-0.04786766,0.01072265,0.00005449,0.00348045,0
 .02146178,-0.00514352,-0.00327732,0.00102547,-0.00022695,-0.00002053,-
 0.00014665,-0.00017362,-0.00004115,-0.00018132,0.00001680,-0.00000618,
 0.00006967,0.00005889,0.00339667,-0.01779035,-0.01498067,0.04034683,-0
 .00009572,0.00009581,0.00037162,-0.00002597,0.00017961,-0.00056723,0.0
 0001983,-0.00002427,0.00023166,0.01148922,0.01345051,-0.33463624,0.001
 56958,-0.00008543,-0.01509988,0.00089865,-0.00167449,0.00096265,-0.000
 09403,-0.00001644,-0.00000866,0.00021074,-0.00004793,0.00003211,0.0000
 4846,-0.00007319,0.00019847,-0.00094341,0.00189306,-0.00965372,-0.0108
 5454,-0.01678516,0.35706227,0.00179526,-0.00060032,0.00090824,0.000014
 52,0.00014499,0.00027075,-0.00002828,-0.00025312,-0.00024631,0.0052220
 9,0.00205568,-0.02039042,-0.05025480,0.00810043,0.01923933,0.00008401,
 -0.00026520,0.02057213,0.00027379,0.00001070,-0.00036440,-0.00042569,0
 .00005350,-0.00066160,0.00001090,0.00010185,-0.00009686,-0.00340074,-0
 .00439768,-0.00031046,0.00443106,0.00802376,-0.00144436,0.04378900,-0.
 00049696,0.00029270,-0.00019174,0.00010109,0.00001379,0.00017062,0.000
 07283,0.00004948,-0.00003767,0.00036656,0.00327252,0.02289499,0.008311
 54,-0.04918840,0.00262766,0.00194796,0.00249879,-0.02078590,-0.0001266
 6,-0.00009887,0.00015179,0.00025539,0.00012822,0.00040460,-0.00001539,
 -0.00005268,0.00005850,-0.00441253,-0.00318851,-0.00045887,0.00809079,
 0.00369954,0.00245129,-0.01669809,0.04357725,-0.00050754,0.00016680,0.
 00027059,-0.00006024,-0.00037155,-0.00035540,0.00005620,0.00034420,0.0
 0032642,0.00205558,-0.00040667,-0.01485053,0.01710526,0.00552233,-0.32
 455830,-0.00055552,0.00135505,-0.01139607,0.00014386,-0.00002489,0.000
 26831,0.00077446,0.00000680,0.00037945,-0.00000377,-0.00011164,0.00009
 444,-0.00049153,-0.00021288,0.00131200,-0.00129171,0.00224758,0.000088
 73,-0.01877437,-0.00632282,0.34792386,-0.01431280,-0.03100987,0.008311
 15,-0.00532444,0.00330705,-0.00470518,-0.00041977,-0.00345290,-0.00008
 999,-0.00137155,0.00128085,0.00204736,0.00483318,0.02429041,-0.0066290
 5,-0.05974388,-0.06072384,0.01642028,0.00173930,0.00023153,0.00077173,
 0.00117602,0.00035172,-0.00021466,0.00075295,-0.00006164,0.00048147,-0
 .00194249,-0.00105142,-0.00028835,0.00072460,0.00072624,0.00003871,0.0
 0042986,-0.00096698,0.00005928,0.07357552,-0.00239213,-0.00411490,0.00
 103171,-0.00049716,0.00147625,-0.00094611,0.00004288,-0.00015961,0.000
 24538,0.00068943,-0.00050774,-0.00320516,-0.00039971,-0.02146563,0.005
 66370,-0.06419569,-0.27272895,0.05422368,-0.00005909,0.00090506,0.0001
 1755,-0.00005686,0.00005832,-0.00031497,0.00018067,0.00004845,-0.00006
 580,0.00154152,0.00072423,0.00035517,-0.00073011,-0.00059078,-0.000094
 84,0.00031208,0.00072490,-0.00043936,0.06592845,0.29742853,-0.00693400
 ,-0.01181145,0.00257392,-0.00151507,0.00201676,-0.00089864,-0.00010616
 ,-0.00119713,0.00001659,0.00085294,-0.00053779,-0.00065875,-0.00409731
 ,-0.01403978,0.00458270,0.01736204,0.05136862,-0.06355993,0.00086135,0
 .00046725,0.00017552,0.00059358,-0.00024551,0.00034488,0.00004345,-0.0
 0063424,0.00031048,0.00057763,0.00036959,0.00038012,0.00014502,-0.0000
 2764,0.00021336,-0.00034045,0.00067009,0.00028880,-0.01637569,-0.05772
 426,0.06326182,-0.00170824,0.00300959,-0.03303606,0.00137339,0.0011060
 3,-0.00215349,-0.00006962,-0.00024888,0.00103161,0.00054391,-0.0010899
 1,0.00075860,-0.00033849,-0.00201814,0.02351597,-0.04940509,0.00044358
 ,-0.00553437,0.00119554,0.00050183,0.00044398,-0.00599762,-0.00145750,
 -0.00132019,-0.00013418,-0.00057947,0.00095191,0.00008476,-0.00023400,
 -0.00022114,0.00002777,0.00026789,-0.00081716,-0.00194099,0.00357047,0
 .00149003,-0.00011649,-0.00036427,0.00893267,0.05648537,-0.00011013,0.
 00009138,-0.00534401,-0.00003709,0.00002624,-0.00205912,0.00016781,0.0
 0017744,0.00080677,-0.00112150,0.00071301,-0.00097809,0.00029679,0.001
 36824,-0.02336487,0.00016690,-0.05359953,0.02462526,0.00019117,0.00009
 450,0.00039338,-0.00098898,0.00044092,-0.00040689,-0.00003884,-0.00009
 779,0.00033086,-0.00030859,0.00011775,0.00016160,0.00012785,-0.0000394
 2,0.00073148,0.00341142,-0.00172873,-0.00175294,0.00115040,-0.00179813
 ,0.03132550,-0.00290722,0.05423411,-0.00221218,-0.00002767,-0.01016364
 ,0.00110916,0.00186153,-0.00086641,-0.00004228,-0.00029928,0.00055105,
 -0.00136453,0.00117491,0.00143973,0.00078656,0.00092911,-0.01550486,-0
 .00409799,0.02277403,-0.30147204,-0.00030312,0.00014125,0.00057596,-0.
 00189593,0.00004372,0.00076273,-0.00024994,-0.00100504,0.00068574,-0.0
 0015152,-0.00004683,0.00045569,0.00065241,-0.00059758,0.00080486,0.001
 63878,-0.00163252,0.00020769,0.00017294,0.00115331,-0.00703087,0.00595
 764,-0.02446895,0.32955437\\0.00000557,0.00000756,0.00000801,-0.000013
 21,-0.00001261,0.00000666,0.00001159,0.00001967,0.00000724,-0.00002962
 ,0.00000821,-0.00002296,-0.00000974,0.00000030,-0.00001016,0.00002358,
 -0.00001350,0.00000428,-0.00000741,-0.00000695,-0.00000705,0.00000287,
 0.00000507,-0.00000824,-0.00000400,-0.00000584,-0.00000277,0.00001872,
 -0.00000116,0.00002033,0.00001032,-0.00000578,0.00000294,0.00000108,0.
 00000468,0.00000442,-0.00000495,-0.00000103,-0.00000234,-0.00000478,0.
 00000138,-0.00000037\\\@


 IT IS THE BEHAVIOR AND DISTRIBUTION OF THE ELECTRONS 
 AROUND THE NUCLEUS THAT GIVES THE FUNDAMENTAL 
 CHARACTER OF AN ATOM:  IT MUST BE THE SAME FOR MOLECULES.

                               -- C. A. COULSON, 1951
 Job cpu time:       0 days  0 hours  3 minutes 47.3 seconds.
 Elapsed time:       0 days  0 hours  0 minutes 57.0 seconds.
 File lengths (MBytes):  RWF=     23 Int=      0 D2E=      0 Chk=      2 Scr=      1
 Normal termination of Gaussian 16 at Mon May  7 11:46:36 2018.
