 Entering Gaussian System, Link 0=/Applications/Gaussian/g16/g16
 Input=claisen_ts_QRCR.com
 Output=claisen_ts_QRCR.log
 Initial command:
 /Applications/Gaussian/g16/l1.exe "/var/folders/8d/fj_bgxp52vnfqt8xr3qz3b1h0000gn/T/Gau-75264.inp" -scrdir="/var/folders/8d/fj_bgxp52vnfqt8xr3qz3b1h0000gn/T/"
 Entering Link 1 = /Applications/Gaussian/g16/l1.exe PID=     75265.
  
 Copyright (c) 1988-2017, Gaussian, Inc.  All Rights Reserved.
  
 This is part of the Gaussian(R) 16 program.  It is based on
 the Gaussian(R) 09 system (copyright 2009, Gaussian, Inc.),
 the Gaussian(R) 03 system (copyright 2003, Gaussian, Inc.),
 the Gaussian(R) 98 system (copyright 1998, Gaussian, Inc.),
 the Gaussian(R) 94 system (copyright 1995, Gaussian, Inc.),
 the Gaussian 92(TM) system (copyright 1992, Gaussian, Inc.),
 the Gaussian 90(TM) system (copyright 1990, Gaussian, Inc.),
 the Gaussian 88(TM) system (copyright 1988, Gaussian, Inc.),
 the Gaussian 86(TM) system (copyright 1986, Carnegie Mellon
 University), and the Gaussian 82(TM) system (copyright 1983,
 Carnegie Mellon University). Gaussian is a federally registered
 trademark of Gaussian, Inc.
  
 This software contains proprietary and confidential information,
 including trade secrets, belonging to Gaussian, Inc.
  
 This software is provided under written license and may be
 used, copied, transmitted, or stored only in accord with that
 written license.
  
 The following legend is applicable only to US Government
 contracts under FAR:
  
                    RESTRICTED RIGHTS LEGEND
  
 Use, reproduction and disclosure by the US Government is
 subject to restrictions as set forth in subparagraphs (a)
 and (c) of the Commercial Computer Software - Restricted
 Rights clause in FAR 52.227-19.
  
 Gaussian, Inc.
 340 Quinnipiac St., Bldg. 40, Wallingford CT 06492
  
  
 ---------------------------------------------------------------
 Warning -- This program may not be used in any manner that
 competes with the business of Gaussian, Inc. or will provide
 assistance to any competitor of Gaussian, Inc.  The licensee
 of this program is prohibited from giving any competitor of
 Gaussian, Inc. access to this program.  By using this program,
 the user acknowledges that Gaussian, Inc. is engaged in the
 business of creating and licensing software in the field of
 computational chemistry and represents and warrants to the
 licensee that it is not a competitor of Gaussian, Inc. and that
 it will not use this program in any manner prohibited above.
 ---------------------------------------------------------------
  

 Cite this work as:
 Gaussian 16, Revision B.01,
 M. J. Frisch, G. W. Trucks, H. B. Schlegel, G. E. Scuseria, 
 M. A. Robb, J. R. Cheeseman, G. Scalmani, V. Barone, 
 G. A. Petersson, H. Nakatsuji, X. Li, M. Caricato, A. V. Marenich, 
 J. Bloino, B. G. Janesko, R. Gomperts, B. Mennucci, H. P. Hratchian, 
 J. V. Ortiz, A. F. Izmaylov, J. L. Sonnenberg, D. Williams-Young, 
 F. Ding, F. Lipparini, F. Egidi, J. Goings, B. Peng, A. Petrone, 
 T. Henderson, D. Ranasinghe, V. G. Zakrzewski, J. Gao, N. Rega, 
 G. Zheng, W. Liang, M. Hada, M. Ehara, K. Toyota, R. Fukuda, 
 J. Hasegawa, M. Ishida, T. Nakajima, Y. Honda, O. Kitao, H. Nakai, 
 T. Vreven, K. Throssell, J. A. Montgomery, Jr., J. E. Peralta, 
 F. Ogliaro, M. J. Bearpark, J. J. Heyd, E. N. Brothers, K. N. Kudin, 
 V. N. Staroverov, T. A. Keith, R. Kobayashi, J. Normand, 
 K. Raghavachari, A. P. Rendell, J. C. Burant, S. S. Iyengar, 
 J. Tomasi, M. Cossi, J. M. Millam, M. Klene, C. Adamo, R. Cammi, 
 J. W. Ochterski, R. L. Martin, K. Morokuma, O. Farkas, 
 J. B. Foresman, and D. J. Fox, Gaussian, Inc., Wallingford CT, 2016.
 
 ******************************************
 Gaussian 16:  EM64M-G16RevB.01 20-Dec-2017
                 7-May-2018 
 ******************************************
 %chk=claisen_ts_QRCR.chk
 %nproc=4
 Will use up to    4 processors via shared memory.
 %mem=8GB
 -------------------------
 # opt freq b3lyp/6-31g(d)
 -------------------------
 1/18=20,19=15,26=3,38=1/1,3;
 2/9=110,12=2,17=6,18=5,40=1/2;
 3/5=1,6=6,7=1,11=2,25=1,30=1,71=1,74=-5/1,2,3;
 4//1;
 5/5=2,38=5/2;
 6/7=2,8=2,9=2,10=2,28=1/1;
 7//1,2,3,16;
 1/18=20,19=15,26=3/3(2);
 2/9=110/2;
 99//99;
 2/9=110/2;
 3/5=1,6=6,7=1,11=2,25=1,30=1,71=1,74=-5/1,2,3;
 4/5=5,16=3,69=1/1;
 5/5=2,38=5/2;
 7//1,2,3,16;
 1/18=20,19=15,26=3/3(-5);
 2/9=110/2;
 6/7=2,8=2,9=2,10=2,19=2,28=1/1;
 99/9=1/99;
 ---------------
 claisen_ts_QRCR
 ---------------
 Symbolic Z-matrix:
 Charge =  0 Multiplicity = 1
 C                    -1.56831   0.73317  -0.31098 
 C                    -1.29106  -0.45106   0.26484 
 O                    -0.40603  -1.33446  -0.23722 
 C                     1.14457  -0.93928   0.16103 
 C                     1.3687    0.4277   -0.3018 
 C                     0.77968   1.4493    0.34024 
 H                    -2.2479    1.4384    0.15779 
 H                    -1.2044    0.96869  -1.31199 
 H                    -1.66766  -0.66415   1.27281 
 H                     1.67939  -1.72991  -0.35932 
 H                     1.18554  -1.07249   1.25182 
 H                     1.7015    0.56003  -1.32968 
 H                     0.70103   2.44295  -0.0927 
 H                     0.43321   1.35618   1.37106 
 

 GradGradGradGradGradGradGradGradGradGradGradGradGradGradGradGradGradGrad
 Berny optimization.
 Initialization pass.
                           ----------------------------
                           !    Initial Parameters    !
                           ! (Angstroms and Degrees)  !
 --------------------------                            --------------------------
 ! Name  Definition              Value          Derivative Info.                !
 --------------------------------------------------------------------------------
 ! R1    R(1,2)                  1.3457         estimate D2E/DX2                !
 ! R2    R(1,7)                  1.0858         estimate D2E/DX2                !
 ! R3    R(1,8)                  1.0908         estimate D2E/DX2                !
 ! R4    R(2,3)                  1.3475         estimate D2E/DX2                !
 ! R5    R(2,9)                  1.0969         estimate D2E/DX2                !
 ! R6    R(3,4)                  1.649          estimate D2E/DX2                !
 ! R7    R(4,5)                  1.4605         estimate D2E/DX2                !
 ! R8    R(4,10)                 1.0871         estimate D2E/DX2                !
 ! R9    R(4,11)                 1.0996         estimate D2E/DX2                !
 ! R10   R(5,6)                  1.3427         estimate D2E/DX2                !
 ! R11   R(5,12)                 1.0885         estimate D2E/DX2                !
 ! R12   R(6,13)                 1.0867         estimate D2E/DX2                !
 ! R13   R(6,14)                 1.0915         estimate D2E/DX2                !
 ! A1    A(2,1,7)              121.0505         estimate D2E/DX2                !
 ! A2    A(2,1,8)              120.9269         estimate D2E/DX2                !
 ! A3    A(7,1,8)              117.6943         estimate D2E/DX2                !
 ! A4    A(1,2,3)              123.5609         estimate D2E/DX2                !
 ! A5    A(1,2,9)              119.5662         estimate D2E/DX2                !
 ! A6    A(3,2,9)              116.1365         estimate D2E/DX2                !
 ! A7    A(2,3,4)              111.7475         estimate D2E/DX2                !
 ! A8    A(3,4,5)              106.982          estimate D2E/DX2                !
 ! A9    A(3,4,10)              99.946          estimate D2E/DX2                !
 ! A10   A(3,4,11)             104.2157         estimate D2E/DX2                !
 ! A11   A(5,4,10)             116.9685         estimate D2E/DX2                !
 ! A12   A(5,4,11)             114.9612         estimate D2E/DX2                !
 ! A13   A(10,4,11)            111.6142         estimate D2E/DX2                !
 ! A14   A(4,5,6)              119.5566         estimate D2E/DX2                !
 ! A15   A(4,5,12)             117.3844         estimate D2E/DX2                !
 ! A16   A(6,5,12)             119.5493         estimate D2E/DX2                !
 ! A17   A(5,6,13)             122.4762         estimate D2E/DX2                !
 ! A18   A(5,6,14)             121.7318         estimate D2E/DX2                !
 ! A19   A(13,6,14)            115.5491         estimate D2E/DX2                !
 ! D1    D(7,1,2,3)           -176.5607         estimate D2E/DX2                !
 ! D2    D(7,1,2,9)             -6.7815         estimate D2E/DX2                !
 ! D3    D(8,1,2,3)             10.1708         estimate D2E/DX2                !
 ! D4    D(8,1,2,9)            179.95           estimate D2E/DX2                !
 ! D5    D(1,2,3,4)             81.1829         estimate D2E/DX2                !
 ! D6    D(9,2,3,4)            -88.9179         estimate D2E/DX2                !
 ! D7    D(2,3,4,5)            -55.5152         estimate D2E/DX2                !
 ! D8    D(2,3,4,10)          -177.8565         estimate D2E/DX2                !
 ! D9    D(2,3,4,11)            66.6625         estimate D2E/DX2                !
 ! D10   D(3,4,5,6)             71.878          estimate D2E/DX2                !
 ! D11   D(3,4,5,12)           -86.9101         estimate D2E/DX2                !
 ! D12   D(10,4,5,6)          -177.1434         estimate D2E/DX2                !
 ! D13   D(10,4,5,12)           24.0685         estimate D2E/DX2                !
 ! D14   D(11,4,5,6)           -43.2965         estimate D2E/DX2                !
 ! D15   D(11,4,5,12)          157.9154         estimate D2E/DX2                !
 ! D16   D(4,5,6,13)          -164.1911         estimate D2E/DX2                !
 ! D17   D(4,5,6,14)            21.7246         estimate D2E/DX2                !
 ! D18   D(12,5,6,13)           -5.8641         estimate D2E/DX2                !
 ! D19   D(12,5,6,14)         -179.9484         estimate D2E/DX2                !
 --------------------------------------------------------------------------------
 Trust Radius=3.00D-01 FncErr=1.00D-07 GrdErr=1.00D-06 EigMax=2.50D+02 EigMin=1.00D-04
 Number of steps in this run=     61 maximum allowed number of steps=    100.
 GradGradGradGradGradGradGradGradGradGradGradGradGradGradGradGradGradGrad

                          Input orientation:                          
 ---------------------------------------------------------------------
 Center     Atomic      Atomic             Coordinates (Angstroms)
 Number     Number       Type             X           Y           Z
 ---------------------------------------------------------------------
      1          6           0       -1.568309    0.733168   -0.310984
      2          6           0       -1.291057   -0.451055    0.264839
      3          8           0       -0.406026   -1.334456   -0.237221
      4          6           0        1.144570   -0.939284    0.161034
      5          6           0        1.368702    0.427704   -0.301796
      6          6           0        0.779679    1.449295    0.340236
      7          1           0       -2.247896    1.438398    0.157794
      8          1           0       -1.204400    0.968689   -1.311994
      9          1           0       -1.667663   -0.664151    1.272812
     10          1           0        1.679394   -1.729906   -0.359320
     11          1           0        1.185540   -1.072495    1.251816
     12          1           0        1.701496    0.560034   -1.329675
     13          1           0        0.701027    2.442945   -0.092698
     14          1           0        0.433205    1.356175    1.371056
 ---------------------------------------------------------------------
                    Distance matrix (angstroms):
                    1          2          3          4          5
     1  C    0.000000
     2  C    1.345669   0.000000
     3  O    2.373060   1.347495   0.000000
     4  C    3.221740   2.486247   1.648974   0.000000
     5  C    2.952867   2.857903   2.501807   1.460515   0.000000
     6  C    2.539680   2.811576   3.080361   2.422926   1.342684
     7  H    1.085790   2.120621   3.352199   4.142730   3.783187
     8  H    1.090835   2.123578   2.664022   3.365685   2.816739
     9  H    2.114422   1.096928   2.078758   3.036512   3.590411
    10  H    4.076352   3.293723   2.126092   1.087147   2.180624
    11  H    3.645058   2.737489   2.195208   1.099650   2.167454
    12  H    3.429188   3.538382   3.037136   2.186398   1.088484
    13  H    2.849714   3.531496   3.938935   3.420612   2.133239
    14  H    2.687649   2.731826   3.245051   2.690599   2.129706
                    6          7          8          9         10
     6  C    0.000000
     7  H    3.033087   0.000000
     8  H    2.626293   1.862736   0.000000
     9  H    3.365388   2.449622   3.092249   0.000000
    10  H    3.377304   5.072392   4.062791   3.873303   0.000000
    11  H    2.712034   4.392033   4.056028   2.882352   1.808823
    12  H    2.104551   4.310659   2.934543   4.429763   2.487147
    13  H    1.086719   3.125381   2.700142   4.138763   4.294296
    14  H    1.091469   2.943988   3.167121   2.916336   3.751144
                   11         12         13         14
    11  H    0.000000
    12  H    3.097654   0.000000
    13  H    3.794837   2.465036   0.000000
    14  H    2.545322   3.088098   1.842654   0.000000
 Stoichiometry    C5H8O
 Framework group  C1[X(C5H8O)]
 Deg. of freedom    36
 Full point group                 C1      NOp   1
 Largest Abelian subgroup         C1      NOp   1
 Largest concise Abelian subgroup C1      NOp   1
                         Standard orientation:                         
 ---------------------------------------------------------------------
 Center     Atomic      Atomic             Coordinates (Angstroms)
 Number     Number       Type             X           Y           Z
 ---------------------------------------------------------------------
      1          6           0       -1.533498    0.803030   -0.307313
      2          6           0       -1.307699   -0.392337    0.267957
      3          8           0       -0.463677   -1.313996   -0.235941
      4          6           0        1.103719   -0.987839    0.159038
      5          6           0        1.387135    0.367925   -0.304300
      6          6           0        0.845239    1.414533    0.338942
      7          1           0       -2.180231    1.537605    0.162875
      8          1           0       -1.161633    1.022286   -1.309094
      9          1           0       -1.691242   -0.588629    1.276727
     10          1           0        1.601944   -1.801314   -0.362419
     11          1           0        1.141050   -1.122804    1.249735
     12          1           0        1.723294    0.485469   -1.332881
     13          1           0        0.809714    2.410718   -0.093852
     14          1           0        0.497154    1.336765    1.370492
 ---------------------------------------------------------------------
 Rotational constants (GHZ):           4.8421438           3.8748736           2.4533663
 Standard basis: 6-31G(d) (6D, 7F)
 There are   106 symmetry adapted cartesian basis functions of A   symmetry.
 There are   106 symmetry adapted basis functions of A   symmetry.
   106 basis functions,   200 primitive gaussians,   106 cartesian basis functions
    23 alpha electrons       23 beta electrons
       nuclear repulsion energy       230.6588753868 Hartrees.
 NAtoms=   14 NActive=   14 NUniq=   14 SFac= 1.00D+00 NAtFMM=   60 NAOKFM=F Big=F
 Integral buffers will be    131072 words long.
 Raffenetti 2 integral format.
 Two-electron integral symmetry is turned on.
 One-electron integrals computed using PRISM.
 NBasis=   106 RedAO= T EigKep=  4.37D-03  NBF=   106
 NBsUse=   106 1.00D-06 EigRej= -1.00D+00 NBFU=   106
 ExpMin= 1.61D-01 ExpMax= 5.48D+03 ExpMxC= 8.25D+02 IAcc=3 IRadAn=         5 AccDes= 0.00D+00
 Harris functional with IExCor=  402 and IRadAn=       5 diagonalized for initial guess.
 HarFok:  IExCor=  402 AccDes= 0.00D+00 IRadAn=         5 IDoV= 1 UseB2=F ITyADJ=14
 ICtDFT=  3500011 ScaDFX=  1.000000  1.000000  1.000000  1.000000
 FoFCou: FMM=F IPFlag=           0 FMFlag=      100000 FMFlg1=           0
         NFxFlg=           0 DoJE=T BraDBF=F KetDBF=T FulRan=T
         wScrn=  0.000000 ICntrl=       500 IOpCl=  0 I1Cent=   200000004 NGrid=           0
         NMat0=    1 NMatS0=      1 NMatT0=    0 NMatD0=    1 NMtDS0=    0 NMtDT0=    0
 Petite list used in FoFCou.
 Keep R1 ints in memory in canonical form, NReq=19807700.
 Requested convergence on RMS density matrix=1.00D-08 within 128 cycles.
 Requested convergence on MAX density matrix=1.00D-06.
 Requested convergence on             energy=1.00D-06.
 No special actions if energy rises.
 Integral accuracy reduced to 1.0D-05 until final iterations.
 Initial convergence to 1.0D-05 achieved.  Increase integral accuracy.
 SCF Done:  E(RB3LYP) =  -270.471512328     A.U. after   14 cycles
            NFock= 14  Conv=0.25D-08     -V/T= 2.0096

 **********************************************************************

            Population analysis using the SCF Density.

 **********************************************************************

 Orbital symmetries:
       Occupied  (A) (A) (A) (A) (A) (A) (A) (A) (A) (A) (A) (A)
                 (A) (A) (A) (A) (A) (A) (A) (A) (A) (A) (A)
       Virtual   (A) (A) (A) (A) (A) (A) (A) (A) (A) (A) (A) (A)
                 (A) (A) (A) (A) (A) (A) (A) (A) (A) (A) (A) (A)
                 (A) (A) (A) (A) (A) (A) (A) (A) (A) (A) (A) (A)
                 (A) (A) (A) (A) (A) (A) (A) (A) (A) (A) (A) (A)
                 (A) (A) (A) (A) (A) (A) (A) (A) (A) (A) (A) (A)
                 (A) (A) (A) (A) (A) (A) (A) (A) (A) (A) (A) (A)
                 (A) (A) (A) (A) (A) (A) (A) (A) (A) (A) (A)
 The electronic state is 1-A.
 Alpha  occ. eigenvalues --  -19.14838 -10.23983 -10.22386 -10.19708 -10.18460
 Alpha  occ. eigenvalues --  -10.17665  -1.00649  -0.79334  -0.74104  -0.67477
 Alpha  occ. eigenvalues --   -0.57215  -0.55560  -0.48926  -0.46302  -0.45020
 Alpha  occ. eigenvalues --   -0.43338  -0.40835  -0.38482  -0.36713  -0.35428
 Alpha  occ. eigenvalues --   -0.27165  -0.26010  -0.22842
 Alpha virt. eigenvalues --   -0.00635   0.01951   0.10133   0.11660   0.11859
 Alpha virt. eigenvalues --    0.13598   0.14523   0.16829   0.18145   0.18794
 Alpha virt. eigenvalues --    0.19968   0.29570   0.30098   0.34654   0.35079
 Alpha virt. eigenvalues --    0.49193   0.51676   0.52417   0.54751   0.55984
 Alpha virt. eigenvalues --    0.58660   0.60299   0.61723   0.63506   0.65118
 Alpha virt. eigenvalues --    0.66568   0.75343   0.76182   0.82014   0.83895
 Alpha virt. eigenvalues --    0.84821   0.85784   0.87905   0.89191   0.90454
 Alpha virt. eigenvalues --    0.94070   0.94421   0.98282   1.04835   1.07801
 Alpha virt. eigenvalues --    1.16892   1.18771   1.24202   1.26173   1.33783
 Alpha virt. eigenvalues --    1.37120   1.44399   1.48416   1.53143   1.57418
 Alpha virt. eigenvalues --    1.66104   1.67414   1.74345   1.76172   1.79126
 Alpha virt. eigenvalues --    1.88191   1.92926   1.97227   1.99446   2.00187
 Alpha virt. eigenvalues --    2.02284   2.12612   2.15725   2.22022   2.25513
 Alpha virt. eigenvalues --    2.25722   2.33672   2.36387   2.45542   2.51863
 Alpha virt. eigenvalues --    2.59228   2.65099   2.73722   2.77305   2.84562
 Alpha virt. eigenvalues --    2.85862   2.99712   3.89945   4.16742   4.22929
 Alpha virt. eigenvalues --    4.31219   4.39750   4.43307
          Condensed to atoms (all electrons):
               1          2          3          4          5          6
     1  C    5.193260   0.600348  -0.053868  -0.015165  -0.018669   0.018279
     2  C    0.600348   4.655593   0.334473  -0.039873  -0.021629  -0.008352
     3  O   -0.053868   0.334473   8.194103   0.169714  -0.044575  -0.014350
     4  C   -0.015165  -0.039873   0.169714   4.943115   0.427876  -0.036699
     5  C   -0.018669  -0.021629  -0.044575   0.427876   4.848757   0.635662
     6  C    0.018279  -0.008352  -0.014350  -0.036699   0.635662   5.037826
     7  H    0.341695  -0.017243   0.003213   0.000205   0.000747  -0.000079
     8  H    0.360457  -0.027066  -0.001291  -0.000386  -0.001106  -0.004095
     9  H   -0.088922   0.366488  -0.053550  -0.002115  -0.000061  -0.002624
    10  H    0.000094   0.003353  -0.024661   0.372975  -0.028015   0.005094
    11  H   -0.000442  -0.004551  -0.028440   0.357448  -0.039953  -0.010515
    12  H   -0.000597  -0.000313   0.001508  -0.048920   0.376150  -0.048992
    13  H    0.001571   0.000211   0.000088   0.004944  -0.027693   0.365166
    14  H   -0.004863  -0.001500  -0.000363  -0.009495  -0.037385   0.372276
               7          8          9         10         11         12
     1  C    0.341695   0.360457  -0.088922   0.000094  -0.000442  -0.000597
     2  C   -0.017243  -0.027066   0.366488   0.003353  -0.004551  -0.000313
     3  O    0.003213  -0.001291  -0.053550  -0.024661  -0.028440   0.001508
     4  C    0.000205  -0.000386  -0.002115   0.372975   0.357448  -0.048920
     5  C    0.000747  -0.001106  -0.000061  -0.028015  -0.039953   0.376150
     6  C   -0.000079  -0.004095  -0.002624   0.005094  -0.010515  -0.048992
     7  H    0.571041  -0.037153  -0.000838   0.000004   0.000040   0.000009
     8  H   -0.037153   0.551767   0.006032  -0.000082   0.000166   0.000989
     9  H   -0.000838   0.006032   0.663999  -0.000188   0.004597   0.000043
    10  H    0.000004  -0.000082  -0.000188   0.545895  -0.036382  -0.005351
    11  H    0.000040   0.000166   0.004597  -0.036382   0.590822   0.005104
    12  H    0.000009   0.000989   0.000043  -0.005351   0.005104   0.588453
    13  H   -0.000198  -0.000465  -0.000007  -0.000181  -0.000045  -0.007220
    14  H    0.000080   0.000589   0.001454   0.000048   0.005985   0.005596
              13         14
     1  C    0.001571  -0.004863
     2  C    0.000211  -0.001500
     3  O    0.000088  -0.000363
     4  C    0.004944  -0.009495
     5  C   -0.027693  -0.037385
     6  C    0.365166   0.372276
     7  H   -0.000198   0.000080
     8  H   -0.000465   0.000589
     9  H   -0.000007   0.001454
    10  H   -0.000181   0.000048
    11  H   -0.000045   0.005985
    12  H   -0.007220   0.005596
    13  H    0.552867  -0.041579
    14  H   -0.041579   0.557166
 Mulliken charges:
               1
     1  C   -0.333179
     2  C    0.160061
     3  O   -0.482001
     4  C   -0.123625
     5  C   -0.070106
     6  C   -0.308598
     7  H    0.138477
     8  H    0.151645
     9  H    0.105691
    10  H    0.167396
    11  H    0.156166
    12  H    0.133540
    13  H    0.152541
    14  H    0.151992
 Sum of Mulliken charges =  -0.00000
 Mulliken charges with hydrogens summed into heavy atoms:
               1
     1  C   -0.043056
     2  C    0.265752
     3  O   -0.482001
     4  C    0.199937
     5  C    0.063434
     6  C   -0.004065
 Electronic spatial extent (au):  <R**2>=            548.3236
 Charge=             -0.0000 electrons
 Dipole moment (field-independent basis, Debye):
    X=              0.8915    Y=              1.3917    Z=              0.7719  Tot=              1.8241
 Quadrupole moment (field-independent basis, Debye-Ang):
   XX=            -37.3828   YY=            -36.5821   ZZ=            -34.9320
   XY=             -3.2447   XZ=             -1.9825   YZ=             -1.3788
 Traceless Quadrupole moment (field-independent basis, Debye-Ang):
   XX=             -1.0838   YY=             -0.2831   ZZ=              1.3670
   XY=             -3.2447   XZ=             -1.9825   YZ=             -1.3788
 Octapole moment (field-independent basis, Debye-Ang**2):
  XXX=             -3.1821  YYY=              1.7012  ZZZ=             -0.2187  XYY=              2.7379
  XXY=             -3.9748  XXZ=             -0.0255  XZZ=              0.6281  YZZ=             -1.0867
  YYZ=             -0.1174  XYZ=              0.1364
 Hexadecapole moment (field-independent basis, Debye-Ang**3):
 XXXX=           -379.7728 YYYY=           -274.7427 ZZZZ=            -82.5913 XXXY=            -10.0320
 XXXZ=            -10.2409 YYYX=             -6.3855 YYYZ=             -0.3420 ZZZX=             -1.8132
 ZZZY=             -1.1418 XXYY=           -102.2966 XXZZ=            -72.5662 YYZZ=            -60.2632
 XXYZ=             -0.4307 YYXZ=             -3.1921 ZZXY=             -0.2645
 N-N= 2.306588753868D+02 E-N=-1.090439077030D+03  KE= 2.678865650417D+02
 Calling FoFJK, ICntrl=      2127 FMM=F ISym2X=0 I1Cent= 0 IOpClX= 0 NMat=1 NMatS=1 NMatT=0.
 ***** Axes restored to original set *****
 -------------------------------------------------------------------
 Center     Atomic                   Forces (Hartrees/Bohr)
 Number     Number              X              Y              Z
 -------------------------------------------------------------------
      1        6          -0.007103238   -0.003414219   -0.009220673
      2        6           0.002276947   -0.001368102    0.002821170
      3        8           0.019366606    0.009483628    0.005147714
      4        6          -0.022145991   -0.006400244    0.000613609
      5        6           0.000217266   -0.004905376   -0.004262012
      6        6           0.007564060    0.008254568    0.008959861
      7        1          -0.002457786   -0.001257803   -0.000453637
      8        1          -0.003039729   -0.000706894    0.004716612
      9        1          -0.000411450   -0.001681033   -0.000356077
     10        1           0.000780908    0.000287275    0.000348784
     11        1          -0.000800726    0.000318880   -0.005248972
     12        1           0.000796550   -0.000094148    0.000169046
     13        1           0.003211730    0.000902472    0.000795524
     14        1           0.001744853    0.000580996   -0.004030948
 -------------------------------------------------------------------
 Cartesian Forces:  Max     0.022145991 RMS     0.006050293

 GradGradGradGradGradGradGradGradGradGradGradGradGradGradGradGradGradGrad
 Berny optimization.
 FormGI is forming the generalized inverse of G from B-inverse, IUseBI=4.
 Internal  Forces:  Max     0.061294487 RMS     0.013161073
 Search for a local minimum.
 Step number   1 out of a maximum of   61
 All quantities printed in internal units (Hartrees-Bohrs-Radians)
 Mixed Optimization -- RFO/linear search
 Second derivative matrix not updated -- first step.
 ITU=  0
     Eigenvalues ---    0.00230   0.01288   0.02160   0.02386   0.02746
     Eigenvalues ---    0.02807   0.02847   0.02849   0.02877   0.06424
     Eigenvalues ---    0.06925   0.11693   0.13558   0.15287   0.15922
     Eigenvalues ---    0.16000   0.16000   0.16000   0.16000   0.20694
     Eigenvalues ---    0.22037   0.22038   0.22161   0.25000   0.33721
     Eigenvalues ---    0.34024   0.34643   0.34716   0.34988   0.35144
     Eigenvalues ---    0.35195   0.35304   0.36900   0.55558   0.55953
     Eigenvalues ---    0.56608
 RFO step:  Lambda=-4.46351506D-02 EMin= 2.30000000D-03
 Linear search not attempted -- first point.
 Maximum step size (   0.300) exceeded in Quadratic search.
    -- Step size scaled by   0.933
 Iteration  1 RMS(Cart)=  0.44271597 RMS(Int)=  0.02844704
 Iteration  2 RMS(Cart)=  0.08785696 RMS(Int)=  0.00231543
 Iteration  3 RMS(Cart)=  0.00349450 RMS(Int)=  0.00176920
 Iteration  4 RMS(Cart)=  0.00000608 RMS(Int)=  0.00176920
 Iteration  5 RMS(Cart)=  0.00000001 RMS(Int)=  0.00176920
 Variable       Old X    -DE/DX   Delta X   Delta X   Delta X     New X
                                 (Linear)    (Quad)   (Total)
    R1        2.54295  -0.00002   0.00000  -0.00002  -0.00002   2.54292
    R2        2.05185   0.00053   0.00000   0.00123   0.00123   2.05308
    R3        2.06138  -0.00549   0.00000  -0.01309  -0.01309   2.04829
    R4        2.54640   0.00060   0.00000   0.00093   0.00093   2.54732
    R5        2.07289   0.00014   0.00000   0.00034   0.00034   2.07323
    R6        3.11611  -0.00901   0.00000  -0.03343  -0.03343   3.08268
    R7        2.75997   0.00600   0.00000   0.01353   0.01353   2.77350
    R8        2.05441   0.00001   0.00000   0.00002   0.00002   2.05443
    R9        2.07804  -0.00527   0.00000  -0.01289  -0.01289   2.06514
   R10        2.53731   0.00465   0.00000   0.00711   0.00711   2.54442
   R11        2.05694   0.00007   0.00000   0.00017   0.00017   2.05711
   R12        2.05360   0.00028   0.00000   0.00065   0.00065   2.05425
   R13        2.06258  -0.00441   0.00000  -0.01053  -0.01053   2.05205
    A1        2.11273  -0.00183   0.00000  -0.00919  -0.00941   2.10332
    A2        2.11057   0.00174   0.00000   0.00708   0.00686   2.11744
    A3        2.05415  -0.00021   0.00000  -0.00180  -0.00202   2.05213
    A4        2.15654   0.00989   0.00000   0.03862   0.03510   2.19164
    A5        2.08682  -0.00181   0.00000   0.00243  -0.00109   2.08574
    A6        2.02696  -0.00620   0.00000  -0.01778  -0.02131   2.00565
    A7        1.95036   0.06129   0.00000   0.19418   0.19418   2.14454
    A8        1.86719   0.04765   0.00000   0.17732   0.17601   2.04320
    A9        1.74439  -0.02114   0.00000  -0.08241  -0.07908   1.66531
   A10        1.81891  -0.01140   0.00000  -0.00432  -0.00909   1.80981
   A11        2.04148  -0.01111   0.00000  -0.05869  -0.05681   1.98467
   A12        2.00645  -0.00544   0.00000  -0.00514  -0.01060   1.99585
   A13        1.94804   0.00316   0.00000  -0.01299  -0.01521   1.93282
   A14        2.08666   0.01642   0.00000   0.06404   0.06166   2.14831
   A15        2.04874  -0.00761   0.00000  -0.01802  -0.02051   2.02824
   A16        2.08653  -0.00542   0.00000  -0.00535  -0.00772   2.07881
   A17        2.13761  -0.00094   0.00000  -0.00503  -0.00527   2.13234
   A18        2.12462   0.00042   0.00000   0.00117   0.00093   2.12555
   A19        2.01671   0.00025   0.00000   0.00041   0.00017   2.01688
    D1       -3.08156  -0.00843   0.00000  -0.10856  -0.10881   3.09282
    D2       -0.11836   0.00382   0.00000   0.04965   0.04992  -0.06844
    D3        0.17751  -0.00530   0.00000  -0.06858  -0.06886   0.10866
    D4        3.14072   0.00695   0.00000   0.08962   0.08987  -3.05259
    D5        1.41691   0.02042   0.00000   0.27248   0.27199   1.68890
    D6       -1.55191   0.00821   0.00000   0.11759   0.11808  -1.43383
    D7       -0.96892  -0.00744   0.00000  -0.08907  -0.09216  -1.06108
    D8       -3.10418  -0.00411   0.00000  -0.05550  -0.05371   3.12529
    D9        1.16348   0.00377   0.00000  -0.01012  -0.00882   1.15466
   D10        1.25451   0.01420   0.00000   0.18130   0.18340   1.43790
   D11       -1.51687   0.00566   0.00000   0.06499   0.06720  -1.44966
   D12       -3.09174   0.01379   0.00000   0.16605   0.16438  -2.92735
   D13        0.42007   0.00525   0.00000   0.04975   0.04819   0.46826
   D14       -0.75567  -0.00004   0.00000   0.07284   0.07225  -0.68342
   D15        2.75614  -0.00858   0.00000  -0.04346  -0.04395   2.71220
   D16       -2.86567  -0.00713   0.00000  -0.09559  -0.09592  -2.96159
   D17        0.37917  -0.00383   0.00000  -0.05360  -0.05395   0.32521
   D18       -0.10235   0.00127   0.00000   0.02099   0.02134  -0.08101
   D19       -3.14069   0.00457   0.00000   0.06298   0.06331  -3.07739
         Item               Value     Threshold  Converged?
 Maximum Force            0.061294     0.000450     NO 
 RMS     Force            0.013161     0.000300     NO 
 Maximum Displacement     1.687333     0.001800     NO 
 RMS     Displacement     0.508287     0.001200     NO 
 Predicted change in Energy=-2.911629D-02
 GradGradGradGradGradGradGradGradGradGradGradGradGradGradGradGradGradGrad

                          Input orientation:                          
 ---------------------------------------------------------------------
 Center     Atomic      Atomic             Coordinates (Angstroms)
 Number     Number       Type             X           Y           Z
 ---------------------------------------------------------------------
      1          6           0       -2.125110    0.501078   -0.437766
      2          6           0       -1.495419   -0.481977    0.231473
      3          8           0       -0.442627   -1.190504   -0.223151
      4          6           0        1.100973   -0.826517    0.158822
      5          6           0        1.594835    0.495409   -0.244509
      6          6           0        1.367237    1.614294    0.469088
      7          1           0       -2.996518    0.989076   -0.010140
      8          1           0       -1.875658    0.731356   -1.467136
      9          1           0       -1.828030   -0.745961    1.243070
     10          1           0        1.541597   -1.647465   -0.401362
     11          1           0        1.153842   -1.018770    1.233304
     12          1           0        1.947873    0.584287   -1.270404
     13          1           0        1.593925    2.604251    0.081398
     14          1           0        1.071342    1.576503    1.513212
 ---------------------------------------------------------------------
                    Distance matrix (angstroms):
                    1          2          3          4          5
     1  C    0.000000
     2  C    1.345656   0.000000
     3  O    2.395466   1.347984   0.000000
     4  C    3.539214   2.620159   1.631285   0.000000
     5  C    3.724966   3.275898   2.644619   1.467673   0.000000
     6  C    3.775993   3.556067   3.409061   2.474818   1.346449
     7  H    1.086443   2.115579   3.364268   4.484903   4.623760
     8  H    1.083908   2.121799   2.700856   3.732431   3.687114
     9  H    2.113900   1.097108   2.065614   3.124282   3.933179
    10  H    4.249977   3.313956   2.043947   1.087157   2.149267
    11  H    3.981701   2.882776   2.167826   1.092827   2.161284
    12  H    4.158053   3.904973   3.156123   2.179517   1.088575
    13  H    4.303963   4.369368   4.317460   3.466867   2.133877
    14  H    3.896173   3.531070   3.600470   2.758579   2.128941
                    6          7          8          9         10
     6  C    0.000000
     7  H    4.434289   0.000000
     8  H    3.878777   1.856228   0.000000
     9  H    4.047170   2.438495   3.087062   0.000000
    10  H    3.380408   5.262973   4.297941   3.856326   0.000000
    11  H    2.750017   4.775259   4.419638   2.994341   1.793807
    12  H    2.103303   5.118508   3.831413   4.727003   2.429200
    13  H    1.087063   4.867170   4.236001   4.927797   4.279355
    14  H    1.085899   4.383282   4.275695   3.724671   3.778981
                   11         12         13         14
    11  H    0.000000
    12  H    3.077147   0.000000
    13  H    3.827120   2.456196   0.000000
    14  H    2.611627   3.082420   1.838328   0.000000
 Stoichiometry    C5H8O
 Framework group  C1[X(C5H8O)]
 Deg. of freedom    36
 Full point group                 C1      NOp   1
 Largest Abelian subgroup         C1      NOp   1
 Largest concise Abelian subgroup C1      NOp   1
                         Standard orientation:                         
 ---------------------------------------------------------------------
 Center     Atomic      Atomic             Coordinates (Angstroms)
 Number     Number       Type             X           Y           Z
 ---------------------------------------------------------------------
      1          6           0       -1.954815    1.000302   -0.293762
      2          6           0       -1.546980   -0.104626    0.357080
      3          8           0       -0.753664   -1.067496   -0.153401
      4          6           0        0.857634   -1.112355    0.097191
      5          6           0        1.640696    0.031171   -0.385745
      6          6           0        1.768917    1.179061    0.306232
      7          1           0       -2.632611    1.702810    0.183136
      8          1           0       -1.740120    1.145827   -1.346182
      9          1           0       -1.851885   -0.261313    1.399255
     10          1           0        1.023954   -2.026065   -0.467948
     11          1           0        0.947496   -1.299134    1.170182
     12          1           0        1.918934    0.013299   -1.438009
     13          1           0        2.210467    2.071586   -0.129817
     14          1           0        1.560364    1.231639    1.370619
 ---------------------------------------------------------------------
 Rotational constants (GHZ):           5.4252561           2.4736858           1.8948892
 Standard basis: 6-31G(d) (6D, 7F)
 There are   106 symmetry adapted cartesian basis functions of A   symmetry.
 There are   106 symmetry adapted basis functions of A   symmetry.
   106 basis functions,   200 primitive gaussians,   106 cartesian basis functions
    23 alpha electrons       23 beta electrons
       nuclear repulsion energy       218.4187062643 Hartrees.
 NAtoms=   14 NActive=   14 NUniq=   14 SFac= 1.00D+00 NAtFMM=   60 NAOKFM=F Big=F
 Integral buffers will be    131072 words long.
 Raffenetti 2 integral format.
 Two-electron integral symmetry is turned on.
 One-electron integrals computed using PRISM.
 NBasis=   106 RedAO= T EigKep=  5.20D-03  NBF=   106
 NBsUse=   106 1.00D-06 EigRej= -1.00D+00 NBFU=   106
 Initial guess from the checkpoint file:  "claisen_ts_QRCR.chk"
 B after Tr=     0.000000   -0.000000   -0.000000
         Rot=    0.993262    0.010201   -0.035472    0.109853 Ang=  13.31 deg.
 ExpMin= 1.61D-01 ExpMax= 5.48D+03 ExpMxC= 8.25D+02 IAcc=3 IRadAn=         5 AccDes= 0.00D+00
 Harris functional with IExCor=  402 and IRadAn=       5 diagonalized for initial guess.
 HarFok:  IExCor=  402 AccDes= 0.00D+00 IRadAn=         5 IDoV= 1 UseB2=F ITyADJ=14
 ICtDFT=  3500011 ScaDFX=  1.000000  1.000000  1.000000  1.000000
 FoFCou: FMM=F IPFlag=           0 FMFlag=      100000 FMFlg1=           0
         NFxFlg=           0 DoJE=T BraDBF=F KetDBF=T FulRan=T
         wScrn=  0.000000 ICntrl=       500 IOpCl=  0 I1Cent=   200000004 NGrid=           0
         NMat0=    1 NMatS0=      1 NMatT0=    0 NMatD0=    1 NMtDS0=    0 NMtDT0=    0
 Petite list used in FoFCou.
 Keep R1 ints in memory in canonical form, NReq=19807700.
 Requested convergence on RMS density matrix=1.00D-08 within 128 cycles.
 Requested convergence on MAX density matrix=1.00D-06.
 Requested convergence on             energy=1.00D-06.
 No special actions if energy rises.
 Integral accuracy reduced to 1.0D-05 until final iterations.
 Initial convergence to 1.0D-05 achieved.  Increase integral accuracy.
 SCF Done:  E(RB3LYP) =  -270.478539513     A.U. after   15 cycles
            NFock= 15  Conv=0.50D-08     -V/T= 2.0102
 Calling FoFJK, ICntrl=      2127 FMM=F ISym2X=0 I1Cent= 0 IOpClX= 0 NMat=1 NMatS=1 NMatT=0.
 ***** Axes restored to original set *****
 -------------------------------------------------------------------
 Center     Atomic                   Forces (Hartrees/Bohr)
 Number     Number              X              Y              Z
 -------------------------------------------------------------------
      1        6           0.000677831   -0.011724369   -0.000409341
      2        6           0.003658537    0.018079433    0.010906382
      3        8           0.036162885    0.004296989   -0.009321352
      4        6          -0.035995875   -0.023526150    0.003141278
      5        6          -0.020497822    0.016227567   -0.006471619
      6        6           0.012196857   -0.005905379    0.000006272
      7        1           0.000069181   -0.001603373    0.000265365
      8        1           0.003934478    0.003424668    0.000128597
      9        1           0.000663760    0.000640893    0.000666320
     10        1           0.003554663   -0.000308048    0.002214675
     11        1           0.000253477    0.001710884    0.000212490
     12        1           0.000267992    0.000599776   -0.000378019
     13        1           0.001724794   -0.000862312   -0.000604015
     14        1          -0.006670759   -0.001050579   -0.000357033
 -------------------------------------------------------------------
 Cartesian Forces:  Max     0.036162885 RMS     0.010779924

 GradGradGradGradGradGradGradGradGradGradGradGradGradGradGradGradGradGrad
 Berny optimization.
 Using GEDIIS/GDIIS optimizer.
 FormGI is forming the generalized inverse of G from B-inverse, IUseBI=4.
 Internal  Forces:  Max     0.046188751 RMS     0.009097047
 Search for a local minimum.
 Step number   2 out of a maximum of   61
 All quantities printed in internal units (Hartrees-Bohrs-Radians)
 Mixed Optimization -- RFO/linear search
 Update second derivatives using D2CorX and points    1    2
 DE= -7.03D-03 DEPred=-2.91D-02 R= 2.41D-01
 Trust test= 2.41D-01 RLast= 5.52D-01 DXMaxT set to 3.00D-01
 ITU=  0  0
 Use linear search instead of GDIIS.
     Eigenvalues ---    0.00233   0.01344   0.02041   0.02532   0.02694
     Eigenvalues ---    0.02817   0.02849   0.02893   0.03114   0.05946
     Eigenvalues ---    0.06702   0.12449   0.14299   0.15694   0.15870
     Eigenvalues ---    0.16000   0.16000   0.16000   0.16004   0.17051
     Eigenvalues ---    0.22000   0.22060   0.23462   0.33693   0.34024
     Eigenvalues ---    0.34592   0.34690   0.34987   0.35143   0.35194
     Eigenvalues ---    0.35301   0.36680   0.44220   0.55560   0.56182
     Eigenvalues ---    0.57827
 RFO step:  Lambda=-6.31253603D-03 EMin= 2.32647825D-03
 Quartic linear search produced a step of -0.44393.
 Iteration  1 RMS(Cart)=  0.20198623 RMS(Int)=  0.00473205
 Iteration  2 RMS(Cart)=  0.00996828 RMS(Int)=  0.00070546
 Iteration  3 RMS(Cart)=  0.00005003 RMS(Int)=  0.00070485
 Iteration  4 RMS(Cart)=  0.00000001 RMS(Int)=  0.00070485
 Variable       Old X    -DE/DX   Delta X   Delta X   Delta X     New X
                                 (Linear)    (Quad)   (Total)
    R1        2.54292  -0.00942   0.00001  -0.00930  -0.00928   2.53364
    R2        2.05308  -0.00067  -0.00055  -0.00026  -0.00081   2.05227
    R3        2.04829   0.00151   0.00581  -0.00588  -0.00007   2.04822
    R4        2.54732   0.00150  -0.00041   0.00210   0.00169   2.54901
    R5        2.07323   0.00026  -0.00015   0.00063   0.00048   2.07371
    R6        3.08268  -0.04619   0.01484  -0.14008  -0.12524   2.95744
    R7        2.77350   0.00589  -0.00601   0.01736   0.01135   2.78485
    R8        2.05443   0.00053  -0.00001   0.00084   0.00083   2.05526
    R9        2.06514  -0.00008   0.00572  -0.00824  -0.00252   2.06262
   R10        2.54442  -0.00823  -0.00316  -0.00330  -0.00646   2.53796
   R11        2.05711   0.00049  -0.00008   0.00088   0.00080   2.05791
   R12        2.05425  -0.00021  -0.00029   0.00008  -0.00020   2.05405
   R13        2.05205   0.00151   0.00467  -0.00426   0.00042   2.05247
    A1        2.10332  -0.00129   0.00418  -0.00658  -0.00309   2.10023
    A2        2.11744   0.00063  -0.00305   0.00868   0.00494   2.12238
    A3        2.05213   0.00110   0.00090   0.00545   0.00566   2.05779
    A4        2.19164  -0.00613  -0.01558   0.00433  -0.01009   2.18155
    A5        2.08574   0.00313   0.00048   0.00356   0.00520   2.09093
    A6        2.00565   0.00303   0.00946  -0.00759   0.00304   2.00870
    A7        2.14454  -0.03090  -0.08620   0.04955  -0.03665   2.10789
    A8        2.04320  -0.02230  -0.07814   0.04227  -0.03557   2.00763
    A9        1.66531   0.01000   0.03511  -0.01282   0.02102   1.68632
   A10        1.80981   0.00839   0.00404  -0.01017  -0.00451   1.80530
   A11        1.98467   0.00345   0.02522  -0.01036   0.01423   1.99890
   A12        1.99585   0.00294   0.00471  -0.01171  -0.00504   1.99081
   A13        1.93282  -0.00161   0.00675   0.00394   0.01167   1.94450
   A14        2.14831  -0.00032  -0.02737   0.03280   0.00641   2.15472
   A15        2.02824   0.00159   0.00910  -0.01146  -0.00133   2.02691
   A16        2.07881  -0.00054   0.00343  -0.01324  -0.00883   2.06998
   A17        2.13234  -0.00122   0.00234  -0.00402  -0.00264   2.12971
   A18        2.12555  -0.00004  -0.00041   0.00332   0.00195   2.12750
   A19        2.01688   0.00174  -0.00007   0.00890   0.00787   2.02475
    D1        3.09282  -0.00203   0.04830  -0.02165   0.02681   3.11963
    D2       -0.06844   0.00025  -0.02216  -0.00260  -0.02488  -0.09332
    D3        0.10866  -0.00543   0.03057  -0.07941  -0.04873   0.05993
    D4       -3.05259  -0.00315  -0.03990  -0.06037  -0.10043   3.13017
    D5        1.68890   0.00130  -0.12074  -0.03053  -0.15105   1.53785
    D6       -1.43383  -0.00090  -0.05242  -0.04891  -0.10155  -1.53538
    D7       -1.06108   0.00184   0.04091   0.11595   0.15803  -0.90306
    D8        3.12529   0.00032   0.02384   0.11942   0.14253  -3.01536
    D9        1.15466  -0.00276   0.00392   0.12128   0.12476   1.27942
   D10        1.43790   0.00028  -0.08142  -0.02918  -0.11139   1.32651
   D11       -1.44966  -0.00292  -0.02983  -0.06308  -0.09372  -1.54339
   D12       -2.92735   0.00114  -0.07297  -0.02554  -0.09785  -3.02520
   D13        0.46826  -0.00205  -0.02139  -0.05944  -0.08018   0.38808
   D14       -0.68342   0.00475  -0.03207  -0.04032  -0.07223  -0.75565
   D15        2.71220   0.00155   0.01951  -0.07422  -0.05457   2.65763
   D16       -2.96159  -0.00311   0.04258  -0.03592   0.00681  -2.95478
   D17        0.32521  -0.00739   0.02395  -0.10710  -0.08304   0.24217
   D18       -0.08101   0.00047  -0.00947  -0.00058  -0.01016  -0.09117
   D19       -3.07739  -0.00381  -0.02810  -0.07176  -0.10001   3.10579
         Item               Value     Threshold  Converged?
 Maximum Force            0.046189     0.000450     NO 
 RMS     Force            0.009097     0.000300     NO 
 Maximum Displacement     0.584476     0.001800     NO 
 RMS     Displacement     0.201606     0.001200     NO 
 Predicted change in Energy=-1.767280D-03
 GradGradGradGradGradGradGradGradGradGradGradGradGradGradGradGradGradGrad

                          Input orientation:                          
 ---------------------------------------------------------------------
 Center     Atomic      Atomic             Coordinates (Angstroms)
 Number     Number       Type             X           Y           Z
 ---------------------------------------------------------------------
      1          6           0       -1.906770    0.568847   -0.407625
      2          6           0       -1.401124   -0.464003    0.281674
      3          8           0       -0.400035   -1.261824   -0.143500
      4          6           0        1.094059   -0.891144    0.138522
      5          6           0        1.484094    0.472770   -0.260661
      6          6           0        1.150904    1.571832    0.435596
      7          1           0       -2.728927    1.150024   -0.000537
      8          1           0       -1.566367    0.804261   -1.409363
      9          1           0       -1.759831   -0.669134    1.298264
     10          1           0        1.535271   -1.681594   -0.464296
     11          1           0        1.208348   -1.092547    1.205169
     12          1           0        1.835214    0.590915   -1.284710
     13          1           0        1.299712    2.572717    0.038662
     14          1           0        0.763714    1.513940    1.448704
 ---------------------------------------------------------------------
                    Distance matrix (angstroms):
                    1          2          3          4          5
     1  C    0.000000
     2  C    1.340743   0.000000
     3  O    2.385659   1.348878   0.000000
     4  C    3.381543   2.535524   1.565011   0.000000
     5  C    3.395407   3.081583   2.563685   1.473681   0.000000
     6  C    3.326615   3.268205   3.281824   2.481479   1.343030
     7  H    1.086015   2.108977   3.355769   4.336003   4.275029
     8  H    1.083870   2.120238   2.689135   3.514003   3.276387
     9  H    2.112877   1.097362   2.068578   3.088524   3.775876
    10  H    4.112827   3.265183   2.006122   1.087598   2.164571
    11  H    3.881404   2.838531   2.105816   1.091494   2.162154
    12  H    3.843463   3.747039   3.119509   2.184353   1.089000
    13  H    3.807387   4.071270   4.198336   3.471397   2.129171
    14  H    3.386834   3.156064   3.405039   2.758647   2.127184
                    6          7          8          9         10
     6  C    0.000000
     7  H    3.926986   0.000000
     8  H    3.372922   1.859002   0.000000
     9  H    3.773394   2.436260   3.088619   0.000000
    10  H    3.397400   5.139699   4.085681   3.871614   0.000000
    11  H    2.773889   4.688815   4.258251   2.999673   1.800268
    12  H    2.095217   4.774210   3.410544   4.602589   2.434613
    13  H    1.086955   4.272648   3.665873   4.632170   4.290409
    14  H    1.086119   3.798851   3.755192   3.340168   3.803459
                   11         12         13         14
    11  H    0.000000
    12  H    3.070260   0.000000
    13  H    3.847498   2.442461   0.000000
    14  H    2.655331   3.077603   1.842965   0.000000
 Stoichiometry    C5H8O
 Framework group  C1[X(C5H8O)]
 Deg. of freedom    36
 Full point group                 C1      NOp   1
 Largest Abelian subgroup         C1      NOp   1
 Largest concise Abelian subgroup C1      NOp   1
                         Standard orientation:                         
 ---------------------------------------------------------------------
 Center     Atomic      Atomic             Coordinates (Angstroms)
 Number     Number       Type             X           Y           Z
 ---------------------------------------------------------------------
      1          6           0       -1.726520    1.012337   -0.334065
      2          6           0       -1.458596   -0.115527    0.339531
      3          8           0       -0.710553   -1.136259   -0.127385
      4          6           0        0.841286   -1.149616    0.074790
      5          6           0        1.536962    0.075369   -0.357856
      6          6           0        1.523805    1.221050    0.342838
      7          1           0       -2.356275    1.778767    0.108001
      8          1           0       -1.390449    1.158134   -1.354149
      9          1           0       -1.804077   -0.227476    1.375057
     10          1           0        1.040458   -2.023489   -0.541282
     11          1           0        0.956815   -1.375745    1.136335
     12          1           0        1.853098    0.104973   -1.399538
     13          1           0        1.896038    2.154424   -0.071561
     14          1           0        1.187193    1.258804    1.374788
 ---------------------------------------------------------------------
 Rotational constants (GHZ):           5.1126830           2.9596850           2.1130720
 Standard basis: 6-31G(d) (6D, 7F)
 There are   106 symmetry adapted cartesian basis functions of A   symmetry.
 There are   106 symmetry adapted basis functions of A   symmetry.
   106 basis functions,   200 primitive gaussians,   106 cartesian basis functions
    23 alpha electrons       23 beta electrons
       nuclear repulsion energy       223.6695580495 Hartrees.
 NAtoms=   14 NActive=   14 NUniq=   14 SFac= 1.00D+00 NAtFMM=   60 NAOKFM=F Big=F
 Integral buffers will be    131072 words long.
 Raffenetti 2 integral format.
 Two-electron integral symmetry is turned on.
 One-electron integrals computed using PRISM.
 NBasis=   106 RedAO= T EigKep=  5.03D-03  NBF=   106
 NBsUse=   106 1.00D-06 EigRej= -1.00D+00 NBFU=   106
 Initial guess from the checkpoint file:  "claisen_ts_QRCR.chk"
 B after Tr=    -0.000000   -0.000000    0.000000
         Rot=    0.999900   -0.002528    0.011856   -0.007231 Ang=  -1.62 deg.
 ExpMin= 1.61D-01 ExpMax= 5.48D+03 ExpMxC= 8.25D+02 IAcc=3 IRadAn=         5 AccDes= 0.00D+00
 Harris functional with IExCor=  402 and IRadAn=       5 diagonalized for initial guess.
 HarFok:  IExCor=  402 AccDes= 0.00D+00 IRadAn=         5 IDoV= 1 UseB2=F ITyADJ=14
 ICtDFT=  3500011 ScaDFX=  1.000000  1.000000  1.000000  1.000000
 FoFCou: FMM=F IPFlag=           0 FMFlag=      100000 FMFlg1=           0
         NFxFlg=           0 DoJE=T BraDBF=F KetDBF=T FulRan=T
         wScrn=  0.000000 ICntrl=       500 IOpCl=  0 I1Cent=   200000004 NGrid=           0
         NMat0=    1 NMatS0=      1 NMatT0=    0 NMatD0=    1 NMtDS0=    0 NMtDT0=    0
 Petite list used in FoFCou.
 Keep R1 ints in memory in canonical form, NReq=19807700.
 Requested convergence on RMS density matrix=1.00D-08 within 128 cycles.
 Requested convergence on MAX density matrix=1.00D-06.
 Requested convergence on             energy=1.00D-06.
 No special actions if energy rises.
 Integral accuracy reduced to 1.0D-05 until final iterations.
 Initial convergence to 1.0D-05 achieved.  Increase integral accuracy.
 SCF Done:  E(RB3LYP) =  -270.485136040     A.U. after   13 cycles
            NFock= 13  Conv=0.44D-08     -V/T= 2.0098
 Calling FoFJK, ICntrl=      2127 FMM=F ISym2X=0 I1Cent= 0 IOpClX= 0 NMat=1 NMatS=1 NMatT=0.
 ***** Axes restored to original set *****
 -------------------------------------------------------------------
 Center     Atomic                   Forces (Hartrees/Bohr)
 Number     Number              X              Y              Z
 -------------------------------------------------------------------
      1        6          -0.001607484   -0.006509853    0.000134403
      2        6           0.002834484    0.015542158    0.009854525
      3        8           0.024467722    0.002090398   -0.009882069
      4        6          -0.033310732   -0.017618643    0.003827322
      5        6          -0.013628634    0.011470220   -0.007781414
      6        6           0.007380775   -0.004612804    0.000361506
      7        1          -0.000394495   -0.000897923   -0.000150039
      8        1           0.001595469    0.000995234   -0.000249620
      9        1          -0.000739532   -0.001549383   -0.000987292
     10        1           0.007494697    0.001101443    0.003067258
     11        1           0.004275517    0.000982420    0.001445808
     12        1           0.002229102    0.000230732    0.000309911
     13        1           0.001635030   -0.000532098   -0.000043608
     14        1          -0.002231917   -0.000691902    0.000093309
 -------------------------------------------------------------------
 Cartesian Forces:  Max     0.033310732 RMS     0.008578721

 GradGradGradGradGradGradGradGradGradGradGradGradGradGradGradGradGradGrad
 Berny optimization.
 Using GEDIIS/GDIIS optimizer.
 FormGI is forming the generalized inverse of G from B-inverse, IUseBI=4.
 Internal  Forces:  Max     0.027030733 RMS     0.005230137
 Search for a local minimum.
 Step number   3 out of a maximum of   61
 All quantities printed in internal units (Hartrees-Bohrs-Radians)
 Mixed Optimization -- RFO/linear search
 Update second derivatives using D2CorX and points    1    2    3
 DE= -6.60D-03 DEPred=-1.77D-03 R= 3.73D+00
 TightC=F SS=  1.41D+00  RLast= 4.36D-01 DXNew= 5.0454D-01 1.3077D+00
 Trust test= 3.73D+00 RLast= 4.36D-01 DXMaxT set to 5.05D-01
 ITU=  1  0  0
 Use linear search instead of GDIIS.
     Eigenvalues ---    0.00264   0.01062   0.02010   0.02064   0.02691
     Eigenvalues ---    0.02814   0.02832   0.02850   0.03102   0.06070
     Eigenvalues ---    0.06933   0.11490   0.14067   0.15124   0.15657
     Eigenvalues ---    0.15997   0.16000   0.16000   0.16020   0.16185
     Eigenvalues ---    0.21716   0.22066   0.22616   0.26954   0.33836
     Eigenvalues ---    0.34046   0.34634   0.34703   0.34988   0.35144
     Eigenvalues ---    0.35195   0.35306   0.36692   0.55491   0.56499
     Eigenvalues ---    0.56527
 RFO step:  Lambda=-1.07712369D-02 EMin= 2.64442240D-03
 Quartic linear search produced a step of  0.30740.
 Iteration  1 RMS(Cart)=  0.15076400 RMS(Int)=  0.01024161
 Iteration  2 RMS(Cart)=  0.01495542 RMS(Int)=  0.00100446
 Iteration  3 RMS(Cart)=  0.00008827 RMS(Int)=  0.00100369
 Iteration  4 RMS(Cart)=  0.00000004 RMS(Int)=  0.00100369
 Variable       Old X    -DE/DX   Delta X   Delta X   Delta X     New X
                                 (Linear)    (Quad)   (Total)
    R1        2.53364  -0.00465  -0.00285  -0.00962  -0.01247   2.52116
    R2        2.05227  -0.00024  -0.00025  -0.00044  -0.00069   2.05158
    R3        2.04822   0.00095  -0.00002   0.00108   0.00106   2.04928
    R4        2.54901   0.00594   0.00052   0.01642   0.01694   2.56595
    R5        2.07371  -0.00038   0.00015  -0.00185  -0.00170   2.07201
    R6        2.95744  -0.02703  -0.03850  -0.15598  -0.19448   2.76296
    R7        2.78485   0.00612   0.00349   0.02486   0.02835   2.81320
    R8        2.05526   0.00054   0.00026   0.00208   0.00233   2.05759
    R9        2.06262   0.00168  -0.00077   0.00557   0.00479   2.06742
   R10        2.53796  -0.00625  -0.00199  -0.01296  -0.01495   2.52301
   R11        2.05791   0.00045   0.00025   0.00174   0.00199   2.05990
   R12        2.05405  -0.00025  -0.00006  -0.00087  -0.00093   2.05311
   R13        2.05247   0.00092   0.00013   0.00141   0.00154   2.05400
    A1        2.10023  -0.00037  -0.00095  -0.00247  -0.00375   2.09648
    A2        2.12238  -0.00004   0.00152  -0.00019   0.00099   2.12337
    A3        2.05779   0.00045   0.00174   0.00284   0.00425   2.06203
    A4        2.18155  -0.00126  -0.00310   0.00330  -0.00187   2.17969
    A5        2.09093   0.00143   0.00160   0.00959   0.00912   2.10005
    A6        2.00870   0.00008   0.00094  -0.00515  -0.00627   2.00243
    A7        2.10789  -0.01284  -0.01127  -0.02394  -0.03520   2.07269
    A8        2.00763  -0.01019  -0.01093  -0.01368  -0.02426   1.98337
    A9        1.68632   0.00857   0.00646   0.07198   0.07831   1.76463
   A10        1.80530   0.00687  -0.00139   0.05698   0.05524   1.86054
   A11        1.99890  -0.00222   0.00437  -0.04495  -0.04124   1.95766
   A12        1.99081   0.00015  -0.00155  -0.01913  -0.02159   1.96922
   A13        1.94450  -0.00155   0.00359  -0.02910  -0.02885   1.91564
   A14        2.15472  -0.00037   0.00197   0.01139   0.01094   2.16567
   A15        2.02691   0.00109  -0.00041   0.01135   0.00853   2.03544
   A16        2.06998   0.00019  -0.00271   0.00851   0.00334   2.07333
   A17        2.12971  -0.00081  -0.00081  -0.00635  -0.00753   2.12218
   A18        2.12750  -0.00013   0.00060  -0.00092  -0.00069   2.12682
   A19        2.02475   0.00096   0.00242   0.00685   0.00890   2.03364
    D1        3.11963  -0.00303   0.00824  -0.08809  -0.07996   3.03967
    D2       -0.09332   0.00145  -0.00765   0.04987   0.04235  -0.05096
    D3        0.05993  -0.00364  -0.01498  -0.09095  -0.10606  -0.04613
    D4        3.13017   0.00083  -0.03087   0.04701   0.01625  -3.13676
    D5        1.53785   0.00331  -0.04643   0.07430   0.02752   1.56537
    D6       -1.53538  -0.00103  -0.03122  -0.05840  -0.08927  -1.62465
    D7       -0.90306  -0.00189   0.04858  -0.23543  -0.18696  -1.09002
    D8       -3.01536  -0.00029   0.04381  -0.22096  -0.17556   3.09227
    D9        1.27942  -0.00293   0.03835  -0.22608  -0.18920   1.09022
   D10        1.32651   0.00244  -0.03424   0.10165   0.06764   1.39415
   D11       -1.54339  -0.00141  -0.02881  -0.03131  -0.06014  -1.60353
   D12       -3.02520   0.00521  -0.03008   0.15510   0.12434  -2.90087
   D13        0.38808   0.00137  -0.02465   0.02214  -0.00344   0.38464
   D14       -0.75565   0.00094  -0.02220   0.05047   0.02909  -0.72656
   D15        2.65763  -0.00291  -0.01677  -0.08249  -0.09869   2.55894
   D16       -2.95478  -0.00333   0.00209  -0.10272  -0.10057  -3.05536
   D17        0.24217  -0.00383  -0.02553  -0.09363  -0.11912   0.12305
   D18       -0.09117   0.00073  -0.00312   0.03374   0.03058  -0.06059
   D19        3.10579   0.00024  -0.03074   0.04283   0.01203   3.11782
         Item               Value     Threshold  Converged?
 Maximum Force            0.027031     0.000450     NO 
 RMS     Force            0.005230     0.000300     NO 
 Maximum Displacement     0.399717     0.001800     NO 
 RMS     Displacement     0.150116     0.001200     NO 
 Predicted change in Energy=-7.000502D-03
 GradGradGradGradGradGradGradGradGradGradGradGradGradGradGradGradGradGrad

                          Input orientation:                          
 ---------------------------------------------------------------------
 Center     Atomic      Atomic             Coordinates (Angstroms)
 Number     Number       Type             X           Y           Z
 ---------------------------------------------------------------------
      1          6           0       -1.866074    0.603943   -0.301791
      2          6           0       -1.367039   -0.491237    0.273955
      3          8           0       -0.349465   -1.237345   -0.227641
      4          6           0        1.022498   -0.898290    0.147175
      5          6           0        1.444378    0.458779   -0.296174
      6          6           0        1.121725    1.587569    0.339649
      7          1           0       -2.742615    1.088458    0.117204
      8          1           0       -1.449037    1.005250   -1.218864
      9          1           0       -1.808746   -0.880655    1.198875
     10          1           0        1.578703   -1.686690   -0.357421
     11          1           0        1.092522   -1.031655    1.230787
     12          1           0        1.933392    0.525054   -1.268125
     13          1           0        1.384415    2.562202   -0.062198
     14          1           0        0.613607    1.579676    1.300469
 ---------------------------------------------------------------------
                    Distance matrix (angstroms):
                    1          2          3          4          5
     1  C    0.000000
     2  C    1.334143   0.000000
     3  O    2.386617   1.357841   0.000000
     4  C    3.286658   2.427272   1.462097   0.000000
     5  C    3.313637   3.021860   2.469697   1.488683   0.000000
     6  C    3.210281   3.243407   3.235174   2.495273   1.335118
     7  H    1.085650   2.100528   3.354913   4.257246   4.254208
     8  H    1.084431   2.115350   2.687157   3.405585   3.085747
     9  H    2.111709   1.096462   2.071637   3.020319   3.822574
    10  H    4.137219   3.241163   1.984083   1.088832   2.150542
    11  H    3.711773   2.693885   2.061224   1.094031   2.162592
    12  H    3.921219   3.782023   3.065957   2.204248   1.090053
    13  H    3.802349   4.123952   4.179744   3.485660   2.117245
    14  H    3.109358   3.043907   3.346376   2.763620   2.120344
                    6          7          8          9         10
     6  C    0.000000
     7  H    3.902783   0.000000
     8  H    3.062168   1.861544   0.000000
     9  H    3.926584   2.433008   3.087311   0.000000
    10  H    3.378684   5.157568   4.141960   3.813995   0.000000
    11  H    2.766823   4.521418   4.075450   2.905370   1.785454
    12  H    2.091095   4.909338   3.416700   4.697415   2.418057
    13  H    1.086461   4.385941   3.433719   4.862083   4.263565
    14  H    1.086932   3.592442   3.306283   3.454178   3.788028
                   11         12         13         14
    11  H    0.000000
    12  H    3.061856   0.000000
    13  H    3.830511   2.430145   0.000000
    14  H    2.655798   3.074367   1.848341   0.000000
 Stoichiometry    C5H8O
 Framework group  C1[X(C5H8O)]
 Deg. of freedom    36
 Full point group                 C1      NOp   1
 Largest Abelian subgroup         C1      NOp   1
 Largest concise Abelian subgroup C1      NOp   1
                         Standard orientation:                         
 ---------------------------------------------------------------------
 Center     Atomic      Atomic             Coordinates (Angstroms)
 Number     Number       Type             X           Y           Z
 ---------------------------------------------------------------------
      1          6           0       -1.639585    1.067680   -0.291256
      2          6           0       -1.449614   -0.119128    0.287825
      3          8           0       -0.677447   -1.115162   -0.217553
      4          6           0        0.738977   -1.158636    0.142419
      5          6           0        1.507784    0.031476   -0.314467
      6          6           0        1.509580    1.208301    0.316107
      7          1           0       -2.347700    1.773336    0.132136
      8          1           0       -1.139248    1.336943   -1.214917
      9          1           0       -1.970396   -0.370230    1.219470
     10          1           0        1.055552   -2.070453   -0.361491
     11          1           0        0.781796   -1.301125    1.226287
     12          1           0        1.986113   -0.041508   -1.291242
     13          1           0        2.022050    2.073567   -0.095094
     14          1           0        1.028550    1.342609    1.281505
 ---------------------------------------------------------------------
 Rotational constants (GHZ):           5.1662721           3.1365165           2.1757295
 Standard basis: 6-31G(d) (6D, 7F)
 There are   106 symmetry adapted cartesian basis functions of A   symmetry.
 There are   106 symmetry adapted basis functions of A   symmetry.
   106 basis functions,   200 primitive gaussians,   106 cartesian basis functions
    23 alpha electrons       23 beta electrons
       nuclear repulsion energy       226.7064052201 Hartrees.
 NAtoms=   14 NActive=   14 NUniq=   14 SFac= 1.00D+00 NAtFMM=   60 NAOKFM=F Big=F
 Integral buffers will be    131072 words long.
 Raffenetti 2 integral format.
 Two-electron integral symmetry is turned on.
 One-electron integrals computed using PRISM.
 NBasis=   106 RedAO= T EigKep=  4.77D-03  NBF=   106
 NBsUse=   106 1.00D-06 EigRej= -1.00D+00 NBFU=   106
 Initial guess from the checkpoint file:  "claisen_ts_QRCR.chk"
 B after Tr=     0.000000    0.000000    0.000000
         Rot=    0.999841   -0.001195    0.014136    0.010818 Ang=  -2.04 deg.
 ExpMin= 1.61D-01 ExpMax= 5.48D+03 ExpMxC= 8.25D+02 IAcc=3 IRadAn=         5 AccDes= 0.00D+00
 Harris functional with IExCor=  402 and IRadAn=       5 diagonalized for initial guess.
 HarFok:  IExCor=  402 AccDes= 0.00D+00 IRadAn=         5 IDoV= 1 UseB2=F ITyADJ=14
 ICtDFT=  3500011 ScaDFX=  1.000000  1.000000  1.000000  1.000000
 FoFCou: FMM=F IPFlag=           0 FMFlag=      100000 FMFlg1=           0
         NFxFlg=           0 DoJE=T BraDBF=F KetDBF=T FulRan=T
         wScrn=  0.000000 ICntrl=       500 IOpCl=  0 I1Cent=   200000004 NGrid=           0
         NMat0=    1 NMatS0=      1 NMatT0=    0 NMatD0=    1 NMtDS0=    0 NMtDT0=    0
 Petite list used in FoFCou.
 Keep R1 ints in memory in canonical form, NReq=19807700.
 Requested convergence on RMS density matrix=1.00D-08 within 128 cycles.
 Requested convergence on MAX density matrix=1.00D-06.
 Requested convergence on             energy=1.00D-06.
 No special actions if energy rises.
 Integral accuracy reduced to 1.0D-05 until final iterations.
 Initial convergence to 1.0D-05 achieved.  Increase integral accuracy.
 SCF Done:  E(RB3LYP) =  -270.492285745     A.U. after   13 cycles
            NFock= 13  Conv=0.35D-08     -V/T= 2.0094
 Calling FoFJK, ICntrl=      2127 FMM=F ISym2X=0 I1Cent= 0 IOpClX= 0 NMat=1 NMatS=1 NMatT=0.
 ***** Axes restored to original set *****
 -------------------------------------------------------------------
 Center     Atomic                   Forces (Hartrees/Bohr)
 Number     Number              X              Y              Z
 -------------------------------------------------------------------
      1        6          -0.001593792   -0.002581437   -0.002585511
      2        6          -0.007436683    0.004009942    0.006665525
      3        8           0.004429657   -0.000554262   -0.010671259
      4        6          -0.011524144   -0.008824388    0.003617565
      5        6          -0.001077948    0.006929130   -0.005987892
      6        6           0.005222737   -0.000685283    0.003477757
      7        1           0.000769812    0.000626760    0.000809860
      8        1          -0.000527350   -0.000109316   -0.000065370
      9        1           0.001901413   -0.000288376   -0.000355786
     10        1           0.005381881   -0.000322458    0.002378235
     11        1           0.004484728    0.001707527    0.002754622
     12        1           0.000288804   -0.000604753    0.000360156
     13        1          -0.000249713    0.000442611   -0.000177624
     14        1          -0.000069400    0.000254304   -0.000220277
 -------------------------------------------------------------------
 Cartesian Forces:  Max     0.011524144 RMS     0.004042126

 GradGradGradGradGradGradGradGradGradGradGradGradGradGradGradGradGradGrad
 Berny optimization.
 Using GEDIIS/GDIIS optimizer.
 FormGI is forming the generalized inverse of G from B-inverse, IUseBI=4.
 Internal  Forces:  Max     0.007718991 RMS     0.002684463
 Search for a local minimum.
 Step number   4 out of a maximum of   61
 All quantities printed in internal units (Hartrees-Bohrs-Radians)
 Mixed Optimization -- RFO/linear search
 Update second derivatives using D2CorX and points    2    3    4
 DE= -7.15D-03 DEPred=-7.00D-03 R= 1.02D+00
 TightC=F SS=  1.41D+00  RLast= 4.93D-01 DXNew= 8.4853D-01 1.4803D+00
 Trust test= 1.02D+00 RLast= 4.93D-01 DXMaxT set to 8.49D-01
 ITU=  1  1  0  0
 Use linear search instead of GDIIS.
     Eigenvalues ---    0.00278   0.01147   0.01803   0.02293   0.02714
     Eigenvalues ---    0.02824   0.02833   0.02972   0.03006   0.06156
     Eigenvalues ---    0.06447   0.10561   0.14232   0.15213   0.15913
     Eigenvalues ---    0.16000   0.16000   0.16009   0.16019   0.16379
     Eigenvalues ---    0.22015   0.22150   0.23297   0.30038   0.33958
     Eigenvalues ---    0.34232   0.34640   0.34709   0.34988   0.35192
     Eigenvalues ---    0.35239   0.35304   0.39451   0.55227   0.56484
     Eigenvalues ---    0.58285
 RFO step:  Lambda=-4.68330423D-03 EMin= 2.77575336D-03
 Quartic linear search produced a step of  0.15774.
 Iteration  1 RMS(Cart)=  0.13320192 RMS(Int)=  0.00394669
 Iteration  2 RMS(Cart)=  0.00713249 RMS(Int)=  0.00078092
 Iteration  3 RMS(Cart)=  0.00003017 RMS(Int)=  0.00078082
 Iteration  4 RMS(Cart)=  0.00000001 RMS(Int)=  0.00078082
 Variable       Old X    -DE/DX   Delta X   Delta X   Delta X     New X
                                 (Linear)    (Quad)   (Total)
    R1        2.52116  -0.00040  -0.00197  -0.00348  -0.00545   2.51572
    R2        2.05158  -0.00003  -0.00011  -0.00046  -0.00057   2.05102
    R3        2.04928  -0.00019   0.00017   0.00068   0.00085   2.05012
    R4        2.56595   0.00772   0.00267   0.01309   0.01576   2.58171
    R5        2.07201  -0.00096  -0.00027  -0.00247  -0.00274   2.06927
    R6        2.76296   0.00364  -0.03068  -0.01609  -0.04677   2.71619
    R7        2.81320   0.00770   0.00447   0.02131   0.02578   2.83898
    R8        2.05759   0.00188   0.00037   0.00527   0.00564   2.06323
    R9        2.06742   0.00281   0.00076   0.00802   0.00878   2.07620
   R10        2.52301   0.00029  -0.00236  -0.00201  -0.00436   2.51864
   R11        2.05990  -0.00023   0.00031  -0.00044  -0.00012   2.05978
   R12        2.05311   0.00040  -0.00015   0.00099   0.00084   2.05395
   R13        2.05400  -0.00016   0.00024   0.00065   0.00089   2.05490
    A1        2.09648  -0.00035  -0.00059  -0.00282  -0.00369   2.09280
    A2        2.12337   0.00047   0.00016   0.00368   0.00357   2.12694
    A3        2.06203  -0.00009   0.00067   0.00095   0.00135   2.06339
    A4        2.17969   0.00043  -0.00029  -0.00479  -0.00564   2.17405
    A5        2.10005   0.00120   0.00144   0.00975   0.01062   2.11068
    A6        2.00243  -0.00167  -0.00099  -0.00591  -0.00745   1.99499
    A7        2.07269   0.00432  -0.00555  -0.01126  -0.01681   2.05588
    A8        1.98337   0.00470  -0.00383   0.00597   0.00234   1.98571
    A9        1.76463   0.00060   0.01235   0.02227   0.03455   1.79918
   A10        1.86054   0.00347   0.00871   0.04654   0.05519   1.91573
   A11        1.95766  -0.00337  -0.00651  -0.02268  -0.02993   1.92773
   A12        1.96922  -0.00403  -0.00341  -0.02294  -0.02727   1.94195
   A13        1.91564  -0.00061  -0.00455  -0.02231  -0.02930   1.88634
   A14        2.16567   0.00118   0.00173   0.00519   0.00440   2.17006
   A15        2.03544  -0.00118   0.00135  -0.00018  -0.00136   2.03408
   A16        2.07333   0.00030   0.00053   0.00751   0.00552   2.07885
   A17        2.12218   0.00006  -0.00119  -0.00048  -0.00188   2.12030
   A18        2.12682   0.00024  -0.00011   0.00147   0.00115   2.12797
   A19        2.03364  -0.00028   0.00140   0.00008   0.00128   2.03492
    D1        3.03967   0.00072  -0.01261   0.01746   0.00478   3.04445
    D2       -0.05096   0.00155   0.00668   0.04169   0.04845  -0.00252
    D3       -0.04613  -0.00004  -0.01673  -0.02142  -0.03823  -0.08436
    D4       -3.13676   0.00079   0.00256   0.00280   0.00544  -3.13132
    D5        1.56537   0.00482   0.00434   0.17536   0.17950   1.74487
    D6       -1.62465   0.00410  -0.01408   0.15275   0.13888  -1.48577
    D7       -1.09002  -0.00205  -0.02949  -0.09277  -0.12246  -1.21248
    D8        3.09227  -0.00068  -0.02769  -0.08244  -0.10946   2.98280
    D9        1.09022  -0.00149  -0.02984  -0.08362  -0.11393   0.97629
   D10        1.39415   0.00423   0.01067   0.16872   0.17928   1.57344
   D11       -1.60353   0.00175  -0.00949   0.06584   0.05639  -1.54714
   D12       -2.90087   0.00578   0.01961   0.18575   0.20452  -2.69634
   D13        0.38464   0.00330  -0.00054   0.08288   0.08163   0.46627
   D14       -0.72656  -0.00087   0.00459   0.11991   0.12524  -0.60133
   D15        2.55894  -0.00335  -0.01557   0.01703   0.00234   2.56128
   D16       -3.05536  -0.00093  -0.01586  -0.04795  -0.06394  -3.11930
   D17        0.12305  -0.00136  -0.01879  -0.08358  -0.10250   0.02056
   D18       -0.06059   0.00149   0.00482   0.05642   0.06136   0.00077
   D19        3.11782   0.00106   0.00190   0.02079   0.02281   3.14063
         Item               Value     Threshold  Converged?
 Maximum Force            0.007719     0.000450     NO 
 RMS     Force            0.002684     0.000300     NO 
 Maximum Displacement     0.461100     0.001800     NO 
 RMS     Displacement     0.137256     0.001200     NO 
 Predicted change in Energy=-3.165720D-03
 GradGradGradGradGradGradGradGradGradGradGradGradGradGradGradGradGradGrad

                          Input orientation:                          
 ---------------------------------------------------------------------
 Center     Atomic      Atomic             Coordinates (Angstroms)
 Number     Number       Type             X           Y           Z
 ---------------------------------------------------------------------
      1          6           0       -2.009721    0.532455   -0.342852
      2          6           0       -1.396337   -0.491289    0.247031
      3          8           0       -0.355864   -1.189472   -0.297398
      4          6           0        0.972628   -0.867676    0.147041
      5          6           0        1.452302    0.482159   -0.305554
      6          6           0        1.279631    1.610758    0.382071
      7          1           0       -2.886877    0.975898    0.117519
      8          1           0       -1.665699    0.938641   -1.288170
      9          1           0       -1.762388   -0.895396    1.196638
     10          1           0        1.580484   -1.657651   -0.298503
     11          1           0        1.032928   -0.966260    1.239622
     12          1           0        1.955558    0.521544   -1.271607
     13          1           0        1.628418    2.566896    0.000613
     14          1           0        0.783198    1.624455    1.349447
 ---------------------------------------------------------------------
                    Distance matrix (angstroms):
                    1          2          3          4          5
     1  C    0.000000
     2  C    1.331261   0.000000
     3  O    2.387957   1.366180   0.000000
     4  C    3.330881   2.400762   1.437348   0.000000
     5  C    3.462589   3.060669   2.462494   1.502326   0.000000
     6  C    3.536677   3.405531   3.313277   2.508411   1.332809
     7  H    1.085351   2.095500   3.356637   4.277314   4.387623
     8  H    1.084879   2.115206   2.688151   3.504765   3.300884
     9  H    2.114229   1.095011   2.072905   2.929630   3.806372
    10  H    4.205722   3.243373   1.992143   1.091814   2.143657
    11  H    3.742738   2.666864   2.083506   1.098675   2.159018
    12  H    4.072609   3.816713   3.036335   2.215547   1.089989
    13  H    4.182460   4.308406   4.258695   3.499683   2.114446
    14  H    3.443361   3.231419   3.453657   2.773514   2.119333
                    6          7          8          9         10
     6  C    0.000000
     7  H    4.222893   0.000000
     8  H    3.452016   1.862425   0.000000
     9  H    4.024699   2.435307   3.089873   0.000000
    10  H    3.352042   5.202496   4.272923   3.740490   0.000000
    11  H    2.727137   4.516189   4.159443   2.796544   1.773038
    12  H    2.092347   5.058190   3.645236   4.682209   2.415885
    13  H    1.086905   4.788823   3.894019   4.991544   4.235394
    14  H    1.087405   3.925267   3.663940   3.585109   3.758141
                   11         12         13         14
    11  H    0.000000
    12  H    3.061222   0.000000
    13  H    3.791166   2.430849   0.000000
    14  H    2.605040   3.075836   1.849851   0.000000
 Stoichiometry    C5H8O
 Framework group  C1[X(C5H8O)]
 Deg. of freedom    36
 Full point group                 C1      NOp   1
 Largest Abelian subgroup         C1      NOp   1
 Largest concise Abelian subgroup C1      NOp   1
                         Standard orientation:                         
 ---------------------------------------------------------------------
 Center     Atomic      Atomic             Coordinates (Angstroms)
 Number     Number       Type             X           Y           Z
 ---------------------------------------------------------------------
      1          6           0       -1.782059    1.057399   -0.277447
      2          6           0       -1.465821   -0.087722    0.323340
      3          8           0       -0.694958   -1.068316   -0.234021
      4          6           0        0.687391   -1.135883    0.153941
      5          6           0        1.516585    0.007626   -0.357732
      6          6           0        1.706036    1.151785    0.299069
      7          1           0       -2.473743    1.745204    0.198456
      8          1           0       -1.375660    1.327021   -1.246522
      9          1           0       -1.892510   -0.348889    1.297393
     10          1           0        1.022122   -2.077019   -0.286827
     11          1           0        0.762704   -1.225186    1.246388
     12          1           0        1.968596   -0.120291   -1.341296
     13          1           0        2.299442    1.957911   -0.124479
     14          1           0        1.275923    1.328551    1.282027
 ---------------------------------------------------------------------
 Rotational constants (GHZ):           5.3851230           2.8326077           2.0746687
 Standard basis: 6-31G(d) (6D, 7F)
 There are   106 symmetry adapted cartesian basis functions of A   symmetry.
 There are   106 symmetry adapted basis functions of A   symmetry.
   106 basis functions,   200 primitive gaussians,   106 cartesian basis functions
    23 alpha electrons       23 beta electrons
       nuclear repulsion energy       224.7455361844 Hartrees.
 NAtoms=   14 NActive=   14 NUniq=   14 SFac= 1.00D+00 NAtFMM=   60 NAOKFM=F Big=F
 Integral buffers will be    131072 words long.
 Raffenetti 2 integral format.
 Two-electron integral symmetry is turned on.
[...]
 ! A10   A(3,4,11)             110.464          -DE/DX =    0.0                 !
 ! A11   A(5,4,10)             110.6436         -DE/DX =    0.0                 !
 ! A12   A(5,4,11)             110.7037         -DE/DX =    0.0                 !
 ! A13   A(10,4,11)            107.8829         -DE/DX =    0.0                 !
 ! A14   A(4,5,6)              124.2087         -DE/DX =    0.0                 !
 ! A15   A(4,5,12)             115.3378         -DE/DX =    0.0                 !
 ! A16   A(6,5,12)             120.4508         -DE/DX =    0.0                 !
 ! A17   A(5,6,13)             121.8807         -DE/DX =    0.0                 !
 ! A18   A(5,6,14)             121.6795         -DE/DX =    0.0                 !
 ! A19   A(13,6,14)            116.4371         -DE/DX =    0.0                 !
 ! D1    D(7,1,2,3)            179.0491         -DE/DX =    0.0                 !
 ! D2    D(7,1,2,9)             -0.5996         -DE/DX =    0.0                 !
 ! D3    D(8,1,2,3)             -0.88           -DE/DX =    0.0                 !
 ! D4    D(8,1,2,9)            179.4713         -DE/DX =    0.0                 !
 ! D5    D(1,2,3,4)            178.0372         -DE/DX =    0.0                 !
 ! D6    D(9,2,3,4)             -2.2913         -DE/DX =    0.0                 !
 ! D7    D(2,3,4,5)            -71.9741         -DE/DX =    0.0                 !
 ! D8    D(2,3,4,10)           168.043          -DE/DX =    0.0                 !
 ! D9    D(2,3,4,11)            52.4267         -DE/DX =    0.0                 !
 ! D10   D(3,4,5,6)            129.3629         -DE/DX =    0.0                 !
 ! D11   D(3,4,5,12)           -51.2299         -DE/DX =    0.0                 !
 ! D12   D(10,4,5,6)          -114.4562         -DE/DX =    0.0                 !
 ! D13   D(10,4,5,12)           64.9511         -DE/DX =    0.0                 !
 ! D14   D(11,4,5,6)             5.0939         -DE/DX =    0.0                 !
 ! D15   D(11,4,5,12)         -175.4989         -DE/DX =    0.0                 !
 ! D16   D(4,5,6,13)           178.4234         -DE/DX =    0.0                 !
 ! D17   D(4,5,6,14)            -0.9676         -DE/DX =    0.0                 !
 ! D18   D(12,5,6,13)           -0.9551         -DE/DX =    0.0                 !
 ! D19   D(12,5,6,14)          179.6539         -DE/DX =    0.0                 !
 --------------------------------------------------------------------------------
 GradGradGradGradGradGradGradGradGradGradGradGradGradGradGradGradGradGrad


 ----------------------------------------------------------------------

 Electric dipole moment (input orientation):
 (Debye = 10**-18 statcoulomb cm , SI units = C m)
                  (au)            (Debye)         (10**-30 SI)
   Tot        0.711754D+00      0.180910D+01      0.603450D+01
   x          0.518761D+00      0.131856D+01      0.439824D+01
   y          0.246634D+00      0.626881D+00      0.209105D+01
   z          0.420300D+00      0.106830D+01      0.356345D+01

 Dipole polarizability, Alpha (input orientation).
 (esu units = cm**3 , SI units = C**2 m**2 J**-1)
 Alpha(0;0):
               (au)            (10**-24 esu)      (10**-40 SI)
   iso        0.559374D+02      0.828906D+01      0.922283D+01
   aniso      0.354334D+02      0.525070D+01      0.584219D+01
   xx         0.697131D+02      0.103304D+02      0.114941D+02
   yx         0.633767D+01      0.939145D+00      0.104494D+01
   yy         0.471053D+02      0.698028D+01      0.776661D+01
   zx         0.122771D+02      0.181928D+01      0.202423D+01
   zy         0.902817D+01      0.133784D+01      0.148854D+01
   zz         0.509937D+02      0.755649D+01      0.840773D+01

 ----------------------------------------------------------------------

 Dipole orientation:
     6         -2.51426108          1.10376146         -4.32215506
     6         -1.71642345          0.36388913         -2.05082108
     8          0.51127095         -0.89390882         -1.71419996
     6          1.15203662         -1.49159720          0.84689766
     6          1.92362777          0.79523395          2.34555747
     6          0.96437329          1.40506482          4.59357286
     1         -4.30889347          2.07186415         -4.50852249
     1         -1.40777451          0.75989955         -6.01387083
     1         -2.80177761          0.71159791         -0.33553129
     1          2.73073895         -2.82024070          0.67786822
     1         -0.41993189         -2.48330411          1.77669929
     1          3.37722016          1.96786419          1.47832081
     1          1.60924974          3.05147126          5.63730734
     1         -0.49605537          0.26683262          5.48971661

 Electric dipole moment (dipole orientation):
 (Debye = 10**-18 statcoulomb cm , SI units = C m)
                  (au)            (Debye)         (10**-30 SI)
   Tot        0.711754D+00      0.180910D+01      0.603450D+01
   x          0.000000D+00      0.000000D+00      0.000000D+00
   y          0.000000D+00      0.000000D+00      0.000000D+00
   z          0.711754D+00      0.180910D+01      0.603450D+01

 Dipole polarizability, Alpha (dipole orientation).
 (esu units = cm**3 , SI units = C**2 m**2 J**-1)
 Alpha(0;0):
               (au)            (10**-24 esu)      (10**-40 SI)
   iso        0.559374D+02      0.828906D+01      0.922283D+01
   aniso      0.354334D+02      0.525070D+01      0.584219D+01
   xx         0.480291D+02      0.711718D+01      0.791893D+01
   yx        -0.434587D+01     -0.643992D+00     -0.716538D+00
   yy         0.418481D+02      0.620124D+01      0.689981D+01
   zx         0.520966D+01      0.771992D+00      0.858957D+00
   zy         0.102454D+00      0.151821D-01      0.168924D-01
   zz         0.779350D+02      0.115488D+02      0.128497D+02

 ----------------------------------------------------------------------
 1\1\GINC-ROBERTS-IMAC-PRO\Freq\RB3LYP\6-31G(d)\C5H8O1\RPATON\07-May-20
 18\0\\#N Geom=AllCheck Guess=TCheck SCRF=Check GenChk RB3LYP/6-31G(d) 
 Freq\\claisen_ts_QRCR\\0,1\C,-2.6458754639,-0.0412868826,-0.5832808482
 \C,-1.4264873155,-0.053803058,-0.0455702308\O,-0.4058471069,-0.7946162
 347,-0.5689410361\C,0.8579949492,-0.6712401242,0.0938257501\C,1.515791
 4346,0.6575126064,-0.1547920298\C,1.993511412,1.4486781156,0.805832674
 5\H,-3.4315953427,0.548961681,-0.1268648287\H,-2.879495083,-0.61269688
 82,-1.47562608\H,-1.176650862,0.5220359537,0.8452855887\H,1.4608358585
 ,-1.484899594,-0.3242528313\H,0.7459247086,-0.8538248343,1.1725165722\
 H,1.5950698043,0.9500294068,-1.2014512563\H,2.485002527,2.3913459751,0
 .5813634266\H,1.9200824797,1.1788648773,1.8578541292\\Version=EM64M-G1
 6RevB.01\State=1-A\HF=-270.504745\RMSD=3.808e-09\RMSF=6.387e-06\ZeroPo
 int=0.1183288\Thermal=0.1254593\Dipole=0.5187613,0.246634,0.4202997\Di
 poleDeriv=-0.5120523,-0.0521131,-0.0586021,-0.0325895,-0.2239948,0.221
 7339,-0.0843676,0.2278461,-0.1269237,1.3271543,-0.1627919,0.1949061,-0
 .7403278,0.2030209,0.00942,-0.4024752,0.1672032,0.1443242,-1.7702585,0
 .0315038,-0.3136979,0.5982819,-0.4839576,0.0172833,0.2305102,-0.114767
 ,-0.3504515,1.179389,0.0876809,0.2405166,0.110767,0.4262443,0.0593884,
 0.3418922,-0.054201,0.4159229,-0.2249126,0.095939,-0.0085812,0.0580558
 ,-0.0204173,-0.0243652,-0.0820986,0.0138148,0.0880894,-0.2426276,0.106
 7788,-0.0258533,0.0961008,-0.0361522,-0.0677841,0.0370018,-0.0616052,0
 .0768556,-0.0159566,0.0508353,0.0080775,0.0737107,0.0664913,-0.0717153
 ,0.0323498,-0.0825347,0.0447541,0.0598337,0.0232821,-0.0144013,0.00872
 16,0.081912,-0.1111311,-0.0376098,-0.1041312,0.0070508,0.020938,-0.012
 5778,-0.0805662,0.0427652,0.0513009,-0.0751443,-0.0193038,-0.1045576,-
 0.0370558,-0.0908955,0.0118723,-0.0079669,0.0373169,-0.0989151,-0.0647
 248,0.0341248,-0.0763264,0.035182,-0.0441331,-0.0155082,0.0282403,-0.0
 457423,0.0165628,-0.0049107,-0.0686696,0.082299,-0.1674314,0.1168688,-
 0.0258389,0.0079441,-0.0546682,0.0138297,0.0292547,0.0137509,0.0391477
 ,-0.0881992,0.0858065,-0.0999355,0.0017521,-0.1173198,-0.0410996,0.012
 6587,0.0017565,0.0364647,0.0400731,0.1108458,-0.0391267,0.0282322,-0.0
 350723,0.0451747,0.0700362,0.0031384,0.0313476,-0.0821906\Polar=69.713
 0903,6.3376672,47.1052863,12.2771342,9.0281661,50.9937237\Quadrupole=0
 .0751491,-0.5887476,0.5135985,-0.4826444,-0.2107924,0.1606181\PG=C01 [
 X(C5H8O1)]\NImag=0\\0.79773949,-0.12254924,0.30993704,0.15716821,0.257
 70590,0.50786453,-0.47132902,0.00440993,-0.18632864,0.81432430,0.00415
 111,-0.07335190,-0.03391369,-0.07216248,0.31926060,-0.18632139,-0.0336
 6456,-0.17862577,0.21321421,0.22569472,0.52974039,-0.05288559,0.035584
 99,0.01862602,-0.20314098,0.10169294,0.06351552,0.49929540,0.01838889,
 0.00444812,0.00149328,0.07789233,-0.12692636,-0.08704816,-0.11565096,0
 .19081120,-0.00373962,0.00868319,0.01985799,0.02767944,-0.07380841,-0.
 12182728,0.03202059,0.11830963,0.22661121,0.00630621,-0.00051619,0.002
 16013,-0.05203842,0.01069376,-0.00735071,-0.16106617,0.00011183,-0.041
 28771,0.45899295,0.00209450,-0.00190077,-0.00291708,0.02250782,-0.0051
 2175,0.01563015,-0.01100351,-0.06626289,-0.02368973,-0.05077995,0.5392
 0704,0.00490604,-0.00394727,-0.00222213,0.01049323,0.00967396,0.006814
 67,-0.06828978,-0.01744117,-0.11169173,-0.06552778,0.01812858,0.590120
 04,-0.00089495,0.00030543,-0.00004603,0.00146112,-0.00523873,0.0000015
 7,-0.03183610,-0.03065949,-0.00583488,-0.08854485,-0.04048373,0.017712
 09,0.27095626,0.00080177,-0.00037356,0.00005994,-0.00117711,0.00237399
 ,0.00082596,-0.01243766,-0.00093249,-0.00693380,-0.04547049,-0.1899298
 5,0.03160386,0.21591938,0.55706560,-0.00123761,0.00053053,-0.00014670,
 0.00272429,-0.00279106,-0.00044277,-0.02012274,-0.01695390,0.00269191,
 0.01916174,0.03086028,-0.10126795,0.10176796,0.10430832,0.77945815,-0.
 00023891,-0.00000837,-0.00010893,0.00074526,-0.00073024,-0.00000158,-0
 .00256997,-0.00088828,-0.00038514,-0.00008641,-0.01174452,-0.01043945,
 -0.12117701,-0.12582335,-0.12252645,0.25931130,-0.00091673,0.00065173,
 0.00021430,0.00205782,-0.00191427,-0.00163898,-0.00338890,-0.00130005,
 0.00092567,-0.01170987,-0.01906646,-0.02154728,-0.12511873,-0.25740167
 ,-0.19336154,0.27390739,0.61064905,0.00032887,0.00001337,0.00004871,-0
 .00051643,0.00072014,0.00015115,0.00509101,0.00145823,0.00170567,-0.00
 394605,-0.00237881,0.00686982,-0.12065131,-0.19124955,-0.35662287,0.08
 463987,0.08165862,0.75305222,-0.20632453,0.12133721,0.08334360,-0.0154
 3829,0.01611981,0.01660805,-0.00335745,-0.00020455,-0.00527969,0.00056
 357,0.00159819,0.00065774,0.00004579,-0.00002444,-0.00006789,-0.000020
 12,-0.00006635,0.00007376,0.21717628,0.12479929,-0.12391585,-0.0838571
 3,-0.00334214,-0.00130911,0.00139738,0.00132891,0.00602254,-0.00321506
 ,0.00036967,0.00182143,-0.00157391,0.00042994,-0.00027147,0.00019645,-
 0.00001134,0.00011323,0.00001252,-0.13220747,0.12649586,0.08814920,-0.
 08539265,-0.09942700,-0.00998533,0.01008400,0.00586978,-0.00400255,-0.
 00370939,0.00190552,-0.00077589,-0.00086724,0.00162295,-0.00027102,0.0
 0027821,-0.00016163,0.00001082,-0.00013925,-0.00001965,-0.09233563,0.0
 8724368,0.09785721,-0.06870204,-0.02492545,-0.05216321,-0.00140302,-0.
 01689556,-0.02651778,0.00243078,-0.00138949,0.00203391,-0.00021818,-0.
 00024952,0.00012870,-0.00005333,0.00002687,-0.00003676,-0.00002330,0.0
 0007341,0.00003458,0.00795962,0.01032069,0.01775802,0.06344792,-0.0275
 0241,-0.12101713,-0.13852548,0.00154130,0.00480092,-0.00072795,-0.0017
 9401,-0.00366603,0.00302793,-0.00029655,-0.00064626,0.00098385,-0.0001
 4241,0.00024408,-0.00014208,0.00001414,-0.00011835,-0.00005669,-0.0050
 1280,-0.00572456,-0.01036750,0.03044842,0.11937947,-0.05560976,-0.1373
 4657,-0.24381577,-0.00128952,-0.00907505,-0.00720391,0.00206355,0.0030
 6722,-0.00125097,0.00011495,0.00062198,-0.00051405,0.00016053,-0.00016
 145,0.00008505,-0.00002794,0.00013518,0.00006010,-0.00336016,-0.003439
 78,-0.00608765,0.06147987,0.15019119,0.25493933,-0.00104578,-0.0152866
 3,-0.02393333,-0.07593006,-0.03363060,-0.06283710,-0.00167449,0.020329
 50,0.02457418,0.00239890,0.00150632,0.00368899,-0.00050767,0.00010499,
 0.00032921,-0.00025573,-0.00033645,-0.00019758,0.00019982,-0.00103952,
 0.00118566,-0.00374471,0.00226934,-0.00327121,0.08043354,0.00123858,0.
 00563738,-0.00006784,-0.03150683,-0.11937550,-0.12201657,0.00620667,-0
 .01070715,-0.01882776,-0.00363317,0.00041871,-0.00266874,0.00020673,0.
 00031432,0.00038277,-0.00003260,-0.00007380,-0.00017387,-0.00149507,-0
 .00329889,0.00292182,0.00264444,0.00691464,-0.00402233,0.02605502,0.12
 053880,-0.00178987,-0.00793701,-0.00526152,-0.05846467,-0.12222839,-0.
 23172367,0.00382494,-0.01207185,-0.01026313,-0.00340372,0.00033866,0.0
 0048269,-0.00008973,-0.00010825,-0.00002189,-0.00019549,0.00059857,0.0
 0030281,0.00074162,0.00326211,-0.00142217,-0.00312539,-0.00441539,0.00
 374846,0.06135437,0.14251726,0.24320138,-0.00127881,0.00120587,0.00111
 023,-0.00286666,-0.00096023,-0.00544233,-0.03544214,0.02405487,0.00819
 226,-0.11415158,0.09764021,0.05541022,0.01023242,-0.01180988,-0.006530
 81,-0.00057342,-0.00128461,0.00061085,-0.00053778,-0.00017233,-0.00010
 605,0.00003708,0.00000679,-0.00010445,0.00006855,0.00001514,0.00015403
 ,0.14564940,-0.00009774,0.00006271,-0.00000975,-0.00157545,0.00134174,
 0.00022317,0.00009032,0.00508503,0.00177741,0.10934784,-0.19634743,-0.
 07645710,0.01139283,-0.02459794,-0.01494515,-0.00090711,-0.00221254,0.
 00309126,-0.00003269,-0.00003825,0.00002359,0.00001920,0.00000198,0.00
 000088,-0.00013034,-0.00008736,0.00013119,-0.11262782,0.21010761,-0.00
 059282,0.00060758,0.00079495,-0.00171527,-0.00042748,-0.00139109,-0.01
 818181,0.01244905,0.00623626,0.06420647,-0.07804094,-0.09740553,-0.004
 26016,0.00485465,0.00464197,0.00032096,0.00032255,0.00026640,-0.000261
 91,-0.00007658,-0.00006415,0.00011201,0.00003581,-0.00006405,-0.000345
 73,0.00049431,0.00025903,-0.05640131,0.08402537,0.09691754,-0.00135737
 ,0.00030727,0.00016502,0.00597829,-0.00336224,-0.00482792,-0.01250950,
 0.00512055,-0.03801196,-0.05703440,-0.00360993,0.04146369,0.00067117,-
 0.00142378,0.01408550,0.00001134,0.00047053,0.00029115,-0.00023534,-0.
 00041734,0.00034819,0.00026362,0.00047795,-0.00016642,0.00007312,0.000
 45996,0.00090094,-0.00036996,-0.00392203,0.01693283,0.06455427,-0.0001
 8348,-0.00022866,-0.00016225,0.00081079,0.00046624,0.00152298,-0.00000
 357,0.00292153,-0.00451237,-0.00512917,-0.06055658,0.03798481,-0.00604
 237,-0.00662068,0.03103142,0.00136905,0.00119367,0.00150478,0.00002058
 ,0.00009245,-0.00005977,-0.00004469,-0.00014065,0.00003252,0.00014019,
 -0.00023257,-0.00005148,0.00303071,0.00574610,-0.02349107,0.00883717,0
 .06156458,-0.00117052,0.00071202,0.00066867,0.00385810,-0.00352059,-0.
 00062511,-0.01420982,0.00127867,-0.01592475,0.03681890,0.04067888,-0.2
 8615561,0.00224106,0.00074354,-0.00638096,-0.00092525,-0.00118045,0.00
 119519,-0.00011442,0.00003028,-0.00004951,0.00023531,-0.00004143,0.000
 08626,-0.00045064,0.00126823,0.00067310,0.00302476,0.00211504,-0.01097
 865,-0.03012408,-0.04305772,0.31557566,0.00005058,0.00004650,-0.000048
 97,-0.00047202,0.00026584,0.00025923,0.00223079,0.00179561,-0.00016851
 ,0.00042514,-0.00504662,0.01258176,-0.04509597,-0.01203971,0.02049063,
 0.00604757,0.00258637,-0.01187136,0.00000444,-0.00001164,-0.00000026,-
 0.00002668,-0.00003570,0.00000935,0.00009928,-0.00007417,0.00003984,0.
 00014296,-0.00035711,-0.00028049,-0.00001149,-0.00297307,0.00037458,0.
 03356339,-0.00005541,0.00001271,0.00001557,-0.00003720,0.00012306,-0.0
 0013419,0.00076165,0.00194841,-0.00191728,-0.00182940,-0.00573546,0.02
 974022,-0.01273765,-0.07550425,0.07386840,0.00046278,0.00862891,-0.021
 13707,-0.00002516,-0.00002342,0.00000554,-0.00002029,-0.00000313,-0.00
 001017,0.00000708,-0.00012883,-0.00002415,0.00071431,0.00094069,-0.000
 56698,-0.00299996,-0.00449656,0.00040148,0.01826803,0.07418704,0.00013
 864,-0.00010387,0.00009961,-0.00017641,0.00028647,0.00002102,0.0011767
 9,-0.00054904,0.00116432,-0.00153053,-0.00024697,-0.00421070,0.0194375
 4,0.07198875,-0.30949408,0.00244361,0.00738265,-0.01940131,0.00001543,
 -0.00000011,0.00000075,0.00001749,0.00002765,-0.00000871,-0.00005073,0
 .00005190,-0.00007684,0.00022890,0.00059553,0.00027545,-0.00023444,0.0
 0075430,0.00081228,-0.01964386,-0.07761078,0.33088071,0.00003401,-0.00
 003882,-0.00004810,-0.00028334,0.00049992,0.00020341,0.00141518,0.0022
 8195,0.00036956,0.01037240,-0.00775272,-0.00241276,-0.00106817,-0.0088
 9064,0.00417740,-0.09827458,-0.12030947,0.02602549,-0.00002255,-0.0000
 6287,0.00004262,-0.00000125,0.00003196,-0.00003280,-0.00004892,-0.0001
 3199,-0.00002022,-0.00152643,-0.00215038,0.00016078,-0.00012707,0.0003
 8269,-0.00046946,-0.00580408,0.00355458,0.00046133,0.09363563,-0.00029
 767,0.00013353,0.00000565,0.00094990,-0.00074642,-0.00044082,-0.002315
 04,-0.00169474,-0.00043398,-0.00468722,0.00515261,-0.00200162,-0.00871
 717,-0.01347557,0.00573544,-0.12003878,-0.26625351,0.05470498,-0.00002
 571,0.00004606,-0.00003463,0.00000351,-0.00003178,0.00002587,0.0000117
 9,0.00005750,0.00008148,0.00061637,0.00049104,-0.00003650,0.00014270,0
 .00023181,0.00022275,0.00363552,-0.00068678,-0.00047710,0.13353841,0.2
 7974916,-0.00019242,0.00009986,0.00004745,0.00044477,-0.00044732,-0.00
 037134,-0.00134789,-0.00048708,0.00018019,-0.00051366,0.00011758,-0.00
 306122,-0.01203618,-0.02336673,0.00855622,0.02858648,0.05796591,-0.072
 68957,-0.00001398,0.00001934,-0.00002011,0.00001296,-0.00001026,0.0000
 1559,-0.00001801,0.00005754,0.00005077,-0.00002068,-0.00046081,0.00029
 848,-0.00018172,-0.00030397,0.00043962,0.00048733,-0.00003330,0.001215
 04,-0.02792789,-0.05729899,0.06796242,-0.00007331,0.00012751,0.0001039
 9,0.00039283,-0.00044330,-0.00050318,-0.00088975,-0.00118277,-0.000162
 44,-0.00591915,0.00532346,-0.00037269,0.00581130,0.00224404,-0.0122144
 6,-0.04289601,-0.01596439,0.02008714,-0.00001346,0.00001616,-0.0000177
 9,0.00003349,-0.00000602,0.00003401,-0.00006584,0.00004732,0.00007335,
 0.00061639,0.00095050,0.00030645,0.00009333,-0.00021482,0.00091147,0.0
 0884609,-0.00606337,-0.00228376,0.00169916,-0.00281660,0.01272089,0.03
 236495,0.00012854,-0.00009535,-0.00004143,-0.00036866,0.00037877,0.000
 37686,0.00092818,0.00025290,0.00061457,0.00352892,-0.00103233,-0.00247
 819,0.00088597,0.00910950,-0.01871986,-0.01556876,-0.07289594,0.071832
 08,0.00001846,-0.00001001,0.00001358,-0.00001153,0.00000679,-0.0000194
 9,-0.00000070,0.00002277,-0.00009274,-0.00042941,-0.00049338,-0.000149
 77,-0.00008084,0.00005932,0.00034930,-0.00605985,0.00073761,-0.0020993
 8,-0.00095261,-0.00297290,0.02414824,0.01798229,0.06693227,-0.00003696
 ,0.00003948,0.00011699,0.00006222,-0.00024730,-0.00038608,-0.00016383,
 0.00020452,0.00060478,0.00187385,0.00176466,0.00061876,0.00186855,0.00
 715657,-0.02089446,0.01860850,0.06866404,-0.31491867,-0.00000652,0.000
 00081,-0.00000433,0.00003029,0.00002036,0.00001030,-0.00002809,0.00008
 329,0.00005097,-0.00012562,-0.00011065,0.00021338,-0.00064078,-0.00119
 218,0.00066381,-0.00222927,-0.00259727,-0.00127752,-0.00052937,-0.0000
 5253,-0.00262356,-0.01868298,-0.07373378,0.33782566\\0.00000519,0.0000
 0034,0.00000035,-0.00002202,0.00001386,0.00000792,-0.00000442,-0.00001
 091,-0.00000493,0.00000503,0.00000312,0.00000331,0.00001217,0.00000167
 ,-0.00001393,-0.00000501,-0.00000285,-0.00000339,-0.00000073,-0.000000
 52,-0.00000360,0.00000044,-0.00000154,-0.00000033,0.00000415,-0.000005
 21,-0.00000463,-0.00000756,-0.00000052,-0.00000060,0.00000778,0.000000
 60,0.00000747,0.00000063,-0.00000111,0.00000242,0.00000265,0.00000200,
 0.00000808,0.00000169,0.00000110,0.00000187\\\@


 EXPERIENCE IS A WONDERFUL THING.  IT ENABLES
 YOU TO RECOGNIZE A MISTAKE WHEN YOU MAKE IT AGAIN.
           - BACK OF A SUGAR PACKET
 Job cpu time:       0 days  0 hours  3 minutes 40.8 seconds.
 Elapsed time:       0 days  0 hours  0 minutes 55.3 seconds.
 File lengths (MBytes):  RWF=     23 Int=      0 D2E=      0 Chk=      2 Scr=      1
 Normal termination of Gaussian 16 at Mon May  7 11:50:40 2018.
