 Entering Gaussian System, Link 0=g16
 Input=planar_chex_mode1.com
 Output=planar_chex_mode1.log
 Initial command:
 /Applications/Gaussian/g16/l1.exe "/var/folders/2d/352180cn2v1_bxhw2xpm1ypm0000gn/T/Gau-75350.inp" -scrdir="/var/folders/2d/352180cn2v1_bxhw2xpm1ypm0000gn/T/"
 Entering Link 1 = /Applications/Gaussian/g16/l1.exe PID=     75351.
  
 Copyright (c) 1988-2017, Gaussian, Inc.  All Rights Reserved.
  
 This is part of the Gaussian(R) 16 program.  It is based on
 the Gaussian(R) 09 system (copyright 2009, Gaussian, Inc.),
 the Gaussian(R) 03 system (copyright 2003, Gaussian, Inc.),
 the Gaussian(R) 98 system (copyright 1998, Gaussian, Inc.),
 the Gaussian(R) 94 system (copyright 1995, Gaussian, Inc.),
 the Gaussian 92(TM) system (copyright 1992, Gaussian, Inc.),
 the Gaussian 90(TM) system (copyright 1990, Gaussian, Inc.),
 the Gaussian 88(TM) system (copyright 1988, Gaussian, Inc.),
 the Gaussian 86(TM) system (copyright 1986, Carnegie Mellon
 University), and the Gaussian 82(TM) system (copyright 1983,
 Carnegie Mellon University). Gaussian is a federally registered
 trademark of Gaussian, Inc.
  
 This software contains proprietary and confidential information,
 including trade secrets, belonging to Gaussian, Inc.
  
 This software is provided under written license and may be
 used, copied, transmitted, or stored only in accord with that
 written license.
  
 The following legend is applicable only to US Government
 contracts under FAR:
  
                    RESTRICTED RIGHTS LEGEND
  
 Use, reproduction and disclosure by the US Government is
 subject to restrictions as set forth in subparagraphs (a)
 and (c) of the Commercial Computer Software - Restricted
 Rights clause in FAR 52.227-19.
  
 Gaussian, Inc.
 340 Quinnipiac St., Bldg. 40, Wallingford CT 06492
  
  
 ---------------------------------------------------------------
 Warning -- This program may not be used in any manner that
 competes with the business of Gaussian, Inc. or will provide
 assistance to any competitor of Gaussian, Inc.  The licensee
 of this program is prohibited from giving any competitor of
 Gaussian, Inc. access to this program.  By using this program,
 the user acknowledges that Gaussian, Inc. is engaged in the
 business of creating and licensing software in the field of
 computational chemistry and represents and warrants to the
 licensee that it is not a competitor of Gaussian, Inc. and that
 it will not use this program in any manner prohibited above.
 ---------------------------------------------------------------
  

 Cite this work as:
 Gaussian 16, Revision B.01,
 M. J. Frisch, G. W. Trucks, H. B. Schlegel, G. E. Scuseria, 
 M. A. Robb, J. R. Cheeseman, G. Scalmani, V. Barone, 
 G. A. Petersson, H. Nakatsuji, X. Li, M. Caricato, A. V. Marenich, 
 J. Bloino, B. G. Janesko, R. Gomperts, B. Mennucci, H. P. Hratchian, 
 J. V. Ortiz, A. F. Izmaylov, J. L. Sonnenberg, D. Williams-Young, 
 F. Ding, F. Lipparini, F. Egidi, J. Goings, B. Peng, A. Petrone, 
 T. Henderson, D. Ranasinghe, V. G. Zakrzewski, J. Gao, N. Rega, 
 G. Zheng, W. Liang, M. Hada, M. Ehara, K. Toyota, R. Fukuda, 
 J. Hasegawa, M. Ishida, T. Nakajima, Y. Honda, O. Kitao, H. Nakai, 
 T. Vreven, K. Throssell, J. A. Montgomery, Jr., J. E. Peralta, 
 F. Ogliaro, M. J. Bearpark, J. J. Heyd, E. N. Brothers, K. N. Kudin, 
 V. N. Staroverov, T. A. Keith, R. Kobayashi, J. Normand, 
 K. Raghavachari, A. P. Rendell, J. C. Burant, S. S. Iyengar, 
 J. Tomasi, M. Cossi, J. M. Millam, M. Klene, C. Adamo, R. Cammi, 
 J. W. Ochterski, R. L. Martin, K. Morokuma, O. Farkas, 
 J. B. Foresman, and D. J. Fox, Gaussian, Inc., Wallingford CT, 2016.
 
 ******************************************
 Gaussian 16:  EM64M-G16RevB.01 20-Dec-2017
                19-May-2021 
 ******************************************
 %chk=planar_chex_mode1.chk
 %nproc=4
 Will use up to    4 processors via shared memory.
 %mem=4GB
 ----------------------------------
 # symm=loose opt b3lyp/6-31G* freq
 ----------------------------------
 1/18=20,19=15,26=3,38=1/1,3;
 2/9=110,12=2,17=4,18=3,40=1/2;
 3/5=1,6=6,7=1,11=2,25=1,30=1,71=1,74=-5/1,2,3;
 4//1;
 5/5=2,38=5/2;
 6/7=2,8=2,9=2,10=2,28=1/1;
 7//1,2,3,16;
 1/18=20,19=15,26=3/3(2);
 2/9=110/2;
 99//99;
 2/9=110/2;
 3/5=1,6=6,7=1,11=2,25=1,30=1,71=1,74=-5/1,2,3;
 4/5=5,16=3,69=1/1;
 5/5=2,38=5/2;
 7//1,2,3,16;
 1/18=20,19=15,26=3/3(-5);
 2/9=110/2;
 6/7=2,8=2,9=2,10=2,19=2,28=1/1;
 99/9=1/99;
 -----------------
 planar_chex_mode1
 -----------------
 Symbolic Z-matrix:
 Charge =  0 Multiplicity = 1
 C                     0.16786   1.54629   0.02756 
 C                     1.42313   0.62775  -0.02527 
 C                     1.25523  -0.91852   0.02657 
 C                    -0.16788  -1.54629  -0.02753 
 C                    -1.42312  -0.62777   0.02661 
 C                    -1.25522   0.91853  -0.02794 
 H                     0.23307   2.15643   0.93475 
 H                     1.98787   0.87745  -0.93098 
 H                     1.83606  -1.34191  -0.80323 
 H                    -0.23388  -2.1564   -0.93468 
 H                    -2.08265  -0.9187   -0.80219 
 H                    -1.83747   1.34342   0.8003 
 H                    -1.75141   1.2827   -0.93578 
 H                    -1.98624  -0.87625   0.93384 
 H                     0.24677   2.26467  -0.8013 
 H                     2.08101   0.91752   0.80505 
 H                     1.75281  -1.28423   0.93285 
 H                    -0.24594  -2.26471   0.80138 
 

 GradGradGradGradGradGradGradGradGradGradGradGradGradGradGradGradGradGrad
 Berny optimization.
 Initialization pass.
                           ----------------------------
                           !    Initial Parameters    !
                           ! (Angstroms and Degrees)  !
 --------------------------                            --------------------------
 ! Name  Definition              Value          Derivative Info.                !
 --------------------------------------------------------------------------------
 ! R1    R(1,2)                  1.5563         estimate D2E/DX2                !
 ! R2    R(1,6)                  1.5564         estimate D2E/DX2                !
 ! R3    R(1,7)                  1.0952         estimate D2E/DX2                !
 ! R4    R(1,15)                 1.0997         estimate D2E/DX2                !
 ! R5    R(2,3)                  1.5562         estimate D2E/DX2                !
 ! R6    R(2,8)                  1.0962         estimate D2E/DX2                !
 ! R7    R(2,16)                 1.0983         estimate D2E/DX2                !
 ! R8    R(3,4)                  1.5564         estimate D2E/DX2                !
 ! R9    R(3,9)                  1.0978         estimate D2E/DX2                !
 ! R10   R(3,17)                 1.0967         estimate D2E/DX2                !
 ! R11   R(4,5)                  1.5564         estimate D2E/DX2                !
 ! R12   R(4,10)                 1.0952         estimate D2E/DX2                !
 ! R13   R(4,18)                 1.0997         estimate D2E/DX2                !
 ! R14   R(5,6)                  1.5563         estimate D2E/DX2                !
 ! R15   R(5,11)                 1.0984         estimate D2E/DX2                !
 ! R16   R(5,14)                 1.0963         estimate D2E/DX2                !
 ! R17   R(6,12)                 1.098          estimate D2E/DX2                !
 ! R18   R(6,13)                 1.0968         estimate D2E/DX2                !
 ! A1    A(2,1,6)              119.8817         estimate D2E/DX2                !
 ! A2    A(2,1,7)              107.9922         estimate D2E/DX2                !
 ! A3    A(2,1,15)             107.583          estimate D2E/DX2                !
 ! A4    A(6,1,7)              107.9797         estimate D2E/DX2                !
 ! A5    A(6,1,15)             107.5913         estimate D2E/DX2                !
 ! A6    A(7,1,15)             104.8398         estimate D2E/DX2                !
 ! A7    A(1,2,3)              119.8857         estimate D2E/DX2                !
 ! A8    A(1,2,8)              108.0072         estimate D2E/DX2                !
 ! A9    A(1,2,16)             107.5633         estimate D2E/DX2                !
 ! A10   A(3,2,8)              108.0253         estimate D2E/DX2                !
 ! A11   A(3,2,16)             107.5534         estimate D2E/DX2                !
 ! A12   A(8,2,16)             104.8299         estimate D2E/DX2                !
 ! A13   A(2,3,4)              119.8856         estimate D2E/DX2                !
 ! A14   A(2,3,9)              107.5144         estimate D2E/DX2                !
 ! A15   A(2,3,17)             108.0544         estimate D2E/DX2                !
 ! A16   A(4,3,9)              107.5746         estimate D2E/DX2                !
 ! A17   A(4,3,17)             108.0041         estimate D2E/DX2                !
 ! A18   A(9,3,17)             104.8317         estimate D2E/DX2                !
 ! A19   A(3,4,5)              119.8818         estimate D2E/DX2                !
 ! A20   A(3,4,10)             107.974          estimate D2E/DX2                !
 ! A21   A(3,4,18)             107.5911         estimate D2E/DX2                !
 ! A22   A(5,4,10)             107.9974         estimate D2E/DX2                !
 ! A23   A(5,4,18)             107.5834         estimate D2E/DX2                !
 ! A24   A(10,4,18)            104.84           estimate D2E/DX2                !
 ! A25   A(4,5,6)              119.8768         estimate D2E/DX2                !
 ! A26   A(4,5,11)             107.5602         estimate D2E/DX2                !
 ! A27   A(4,5,14)             108.0164         estimate D2E/DX2                !
 ! A28   A(6,5,11)             107.5464         estimate D2E/DX2                !
 ! A29   A(6,5,14)             108.0356         estimate D2E/DX2                !
 ! A30   A(11,5,14)            104.8303         estimate D2E/DX2                !
 ! A31   A(1,6,5)              119.8766         estimate D2E/DX2                !
 ! A32   A(1,6,12)             107.5716         estimate D2E/DX2                !
 ! A33   A(1,6,13)             108.0139         estimate D2E/DX2                !
 ! A34   A(5,6,12)             107.5072         estimate D2E/DX2                !
 ! A35   A(5,6,13)             108.0647         estimate D2E/DX2                !
 ! A36   A(12,6,13)            104.8316         estimate D2E/DX2                !
 ! D1    D(6,1,2,3)             -6.8009         estimate D2E/DX2                !
 ! D2    D(6,1,2,8)            117.3994         estimate D2E/DX2                !
 ! D3    D(6,1,2,16)          -129.9458         estimate D2E/DX2                !
 ! D4    D(7,1,2,3)            117.3189         estimate D2E/DX2                !
 ! D5    D(7,1,2,8)           -118.4808         estimate D2E/DX2                !
 ! D6    D(7,1,2,16)            -5.826          estimate D2E/DX2                !
 ! D7    D(15,1,2,3)          -130.0125         estimate D2E/DX2                !
 ! D8    D(15,1,2,8)            -5.8122         estimate D2E/DX2                !
 ! D9    D(15,1,2,16)          106.8425         estimate D2E/DX2                !
 ! D10   D(2,1,6,5)              6.9157         estimate D2E/DX2                !
 ! D11   D(2,1,6,12)           129.9975         estimate D2E/DX2                !
 ! D12   D(2,1,6,13)          -117.3386         estimate D2E/DX2                !
 ! D13   D(7,1,6,5)           -117.2101         estimate D2E/DX2                !
 ! D14   D(7,1,6,12)             5.8717         estimate D2E/DX2                !
 ! D15   D(7,1,6,13)           118.5356         estimate D2E/DX2                !
 ! D16   D(15,1,6,5)           130.1233         estimate D2E/DX2                !
 ! D17   D(15,1,6,12)         -106.7949         estimate D2E/DX2                !
 ! D18   D(15,1,6,13)            5.8691         estimate D2E/DX2                !
 ! D19   D(1,2,3,4)              6.7411         estimate D2E/DX2                !
 ! D20   D(1,2,3,9)            129.8716         estimate D2E/DX2                !
 ! D21   D(1,2,3,17)          -117.4727         estimate D2E/DX2                !
 ! D22   D(8,2,3,4)           -117.4505         estimate D2E/DX2                !
 ! D23   D(8,2,3,9)              5.6799         estimate D2E/DX2                !
 ! D24   D(8,2,3,17)           118.3357         estimate D2E/DX2                !
 ! D25   D(16,2,3,4)           129.8908         estimate D2E/DX2                !
 ! D26   D(16,2,3,9)          -106.9787         estimate D2E/DX2                !
 ! D27   D(16,2,3,17)            5.677          estimate D2E/DX2                !
 ! D28   D(2,3,4,5)             -6.7965         estimate D2E/DX2                !
 ! D29   D(2,3,4,10)           117.3314         estimate D2E/DX2                !
 ! D30   D(2,3,4,18)          -130.0046         estimate D2E/DX2                !
 ! D31   D(9,3,4,5)           -129.8977         estimate D2E/DX2                !
 ! D32   D(9,3,4,10)            -5.7698         estimate D2E/DX2                !
 ! D33   D(9,3,4,18)           106.8942         estimate D2E/DX2                !
 ! D34   D(17,3,4,5)           117.4414         estimate D2E/DX2                !
 ! D35   D(17,3,4,10)         -118.4307         estimate D2E/DX2                !
 ! D36   D(17,3,4,18)           -5.7666         estimate D2E/DX2                !
 ! D37   D(3,4,5,6)              6.9113         estimate D2E/DX2                !
 ! D38   D(3,4,5,11)           130.0371         estimate D2E/DX2                !
 ! D39   D(3,4,5,14)          -117.3047         estimate D2E/DX2                !
 ! D40   D(10,4,5,6)          -117.2054         estimate D2E/DX2                !
 ! D41   D(10,4,5,11)            5.9204         estimate D2E/DX2                !
 ! D42   D(10,4,5,14)          118.5786         estimate D2E/DX2                !
 ! D43   D(18,4,5,6)           130.1232         estimate D2E/DX2                !
 ! D44   D(18,4,5,11)         -106.751          estimate D2E/DX2                !
 ! D45   D(18,4,5,14)            5.9071         estimate D2E/DX2                !
 ! D46   D(4,5,6,1)             -6.971          estimate D2E/DX2                !
 ! D47   D(4,5,6,12)          -130.084          estimate D2E/DX2                !
 ! D48   D(4,5,6,13)           117.259          estimate D2E/DX2                !
 ! D49   D(11,5,6,1)          -130.1035         estimate D2E/DX2                !
 ! D50   D(11,5,6,12)          106.7835         estimate D2E/DX2                !
 ! D51   D(11,5,6,13)           -5.8735         estimate D2E/DX2                !
 ! D52   D(14,5,6,1)           117.2359         estimate D2E/DX2                !
 ! D53   D(14,5,6,12)           -5.8771         estimate D2E/DX2                !
 ! D54   D(14,5,6,13)         -118.5341         estimate D2E/DX2                !
 --------------------------------------------------------------------------------
 Trust Radius=3.00D-01 FncErr=1.00D-07 GrdErr=1.00D-06 EigMax=2.50D+02 EigMin=1.00D-04
 Number of steps in this run=    108 maximum allowed number of steps=    108.
 GradGradGradGradGradGradGradGradGradGradGradGradGradGradGradGradGradGrad

                          Input orientation:                          
 ---------------------------------------------------------------------
 Center     Atomic      Atomic             Coordinates (Angstroms)
 Number     Number       Type             X           Y           Z
 ---------------------------------------------------------------------
      1          6           0        0.167858    1.546289    0.027560
      2          6           0        1.423125    0.627751   -0.025269
      3          6           0        1.255232   -0.918516    0.026567
      4          6           0       -0.167879   -1.546289   -0.027526
      5          6           0       -1.423119   -0.627769    0.026610
      6          6           0       -1.255217    0.918533   -0.027943
      7          1           0        0.233066    2.156432    0.934748
      8          1           0        1.987865    0.877448   -0.930977
      9          1           0        1.836063   -1.341908   -0.803231
     10          1           0       -0.233877   -2.156395   -0.934675
     11          1           0       -2.082652   -0.918697   -0.802191
     12          1           0       -1.837467    1.343415    0.800295
     13          1           0       -1.751414    1.282704   -0.935780
     14          1           0       -1.986238   -0.876251    0.933842
     15          1           0        0.246772    2.264675   -0.801301
     16          1           0        2.081012    0.917520    0.805051
     17          1           0        1.752808   -1.284225    0.932845
     18          1           0       -0.245938   -2.264714    0.801376
 ---------------------------------------------------------------------
                    Distance matrix (angstroms):
                    1          2          3          4          5
     1  C    0.000000
     2  C    1.556341   0.000000
     3  C    2.694002   1.556219   0.000000
     4  C    3.111236   2.694021   1.556364   0.000000
     5  C    2.694019   3.111290   2.694086   1.556354   0.000000
     6  C    1.556374   2.694082   3.111282   2.694003   1.556347
     7  H    1.095224   2.162114   3.365252   3.846670   3.364437
     8  H    2.163000   1.096169   2.163129   3.367188   3.849346
     9  H    3.437267   2.157614   1.097812   2.158535   3.438153
    10  H    3.846707   3.365137   2.161892   1.095219   2.162189
    11  H    3.439395   3.909678   3.439231   2.158780   1.098423
    12  H    2.158612   3.438778   3.908935   3.438488   2.157739
    13  H    2.163586   3.366852   3.848558   3.366855   2.164227
    14  H    3.366033   3.847814   3.366313   2.163240   1.096319
    15  H    1.099689   2.159989   3.440212   3.910768   3.440960
    16  H    2.158704   1.098277   2.158467   3.438175   3.908046
    17  H    3.367999   2.163868   1.096661   2.163337   3.367300
    18  H    3.910724   3.440271   2.160113   1.099685   2.160001
                    6          7          8          9         10
     6  C    0.000000
     7  H    2.161979   0.000000
     8  H    3.366710   2.862874   0.000000
     9  H    3.907260   4.222387   2.228206   0.000000
    10  H    3.364592   4.723691   3.760366   2.228299   0.000000
    11  H    2.158593   4.223260   4.451048   3.941502   2.228770
    12  H    1.097961   2.228493   4.224641   4.824632   4.222593
    13  H    1.096814   2.863640   3.761178   4.447038   3.759032
    14  H    2.163486   3.757988   4.727209   4.224245   2.863720
    15  H    2.160128   1.739474   2.229937   3.941230   4.449120
    16  H    3.438649   2.228593   1.738987   2.784167   4.223069
    17  H    3.850126   3.761348   2.863898   1.739028   2.862731
    18  H    3.440854   4.449018   4.226595   2.785868   1.739469
                   11         12         13         14         15
    11  H    0.000000
    12  H    2.783025   0.000000
    13  H    2.230186   1.739266   0.000000
    14  H    1.739226   2.228651   2.865609   0.000000
    15  H    3.944626   2.785297   2.230493   4.226402   0.000000
    16  H    4.826077   3.941559   4.225085   4.447103   2.785611
    17  H    4.225484   4.451083   4.728684   3.761238   4.227304
    18  H    2.785087   3.943547   4.227096   2.230251   4.829772
                   16         17         18
    16  H    0.000000
    17  H    2.229738   0.000000
    18  H    3.942248   2.230163   0.000000
 This structure is nearly, but not quite of a higher symmetry.
 Consider Symm=Loose if the higher symmetry is desired.
 Stoichiometry    C6H12
 Framework group  C1[X(C6H12)]
 Deg. of freedom    48
 Full point group                 C1      NOp   1
 Largest Abelian subgroup         C1      NOp   1
 Largest concise Abelian subgroup C1      NOp   1
                         Standard orientation:                         
 ---------------------------------------------------------------------
 Center     Atomic      Atomic             Coordinates (Angstroms)
 Number     Number       Type             X           Y           Z
 ---------------------------------------------------------------------
      1          6           0        0.271220    1.531557    0.026800
      2          6           0        1.461996    0.530880   -0.027011
      3          6           0        1.190828   -1.000629    0.025585
      4          6           0       -0.271241   -1.531556   -0.026766
      5          6           0       -1.461990   -0.530898    0.028352
      6          6           0       -1.190814    1.000644   -0.026960
      7          1           0        0.378184    2.136229    0.933689
      8          1           0        2.041232    0.741861   -0.933410
      9          1           0        1.741057   -1.462277   -0.804668
     10          1           0       -0.378991   -2.136138   -0.933615
     11          1           0       -2.140446   -0.777188   -0.799641
     12          1           0       -1.742360    1.463874    0.801733
     13          1           0       -1.662449    1.396999   -0.934409
     14          1           0       -2.039525   -0.740775    0.936273
     15          1           0        0.397242    2.242780   -0.802414
     16          1           0        2.138733    0.776124    0.802503
     17          1           0        1.663735   -1.398611    0.931473
     18          1           0       -0.396413   -2.242875    0.802488
 ---------------------------------------------------------------------
 Rotational constants (GHZ):           4.0039083           4.0036778           2.1595891
 Standard basis: 6-31G(d) (6D, 7F)
 There are   114 symmetry adapted cartesian basis functions of A   symmetry.
 There are   114 symmetry adapted basis functions of A   symmetry.
   114 basis functions,   216 primitive gaussians,   114 cartesian basis functions
    24 alpha electrons       24 beta electrons
       nuclear repulsion energy       247.8981754940 Hartrees.
 NAtoms=   18 NActive=   18 NUniq=   18 SFac= 1.00D+00 NAtFMM=   60 NAOKFM=F Big=F
 Integral buffers will be    131072 words long.
 Raffenetti 2 integral format.
 Two-electron integral symmetry is turned on.
 One-electron integrals computed using PRISM.
 NBasis=   114 RedAO= T EigKep=  2.48D-03  NBF=   114
 NBsUse=   114 1.00D-06 EigRej= -1.00D+00 NBFU=   114
 ExpMin= 1.61D-01 ExpMax= 3.05D+03 ExpMxC= 4.57D+02 IAcc=3 IRadAn=         5 AccDes= 0.00D+00
 Harris functional with IExCor=  402 and IRadAn=       5 diagonalized for initial guess.
 HarFok:  IExCor=  402 AccDes= 0.00D+00 IRadAn=         5 IDoV= 1 UseB2=F ITyADJ=14
 ICtDFT=  3500011 ScaDFX=  1.000000  1.000000  1.000000  1.000000
 FoFCou: FMM=F IPFlag=           0 FMFlag=      100000 FMFlg1=           0
         NFxFlg=           0 DoJE=T BraDBF=F KetDBF=T FulRan=T
         wScrn=  0.000000 ICntrl=       500 IOpCl=  0 I1Cent=   200000004 NGrid=           0
         NMat0=    1 NMatS0=      1 NMatT0=    0 NMatD0=    1 NMtDS0=    0 NMtDT0=    0
 Petite list used in FoFCou.
 Keep R1 ints in memory in canonical form, NReq=25245998.
 Requested convergence on RMS density matrix=1.00D-08 within 128 cycles.
 Requested convergence on MAX density matrix=1.00D-06.
 Requested convergence on             energy=1.00D-06.
 No special actions if energy rises.
 Integral accuracy reduced to 1.0D-05 until final iterations.
 Initial convergence to 1.0D-05 achieved.  Increase integral accuracy.
 SCF Done:  E(RB3LYP) =  -235.840228845     A.U. after   10 cycles
            NFock= 10  Conv=0.29D-08     -V/T= 2.0106

 **********************************************************************

            Population analysis using the SCF Density.

 **********************************************************************

 Orbital symmetries:
       Occupied  (A) (A) (A) (A) (A) (A) (A) (A) (A) (A) (A) (A)
                 (A) (A) (A) (A) (A) (A) (A) (A) (A) (A) (A) (A)
       Virtual   (A) (A) (A) (A) (A) (A) (A) (A) (A) (A) (A) (A)
                 (A) (A) (A) (A) (A) (A) (A) (A) (A) (A) (A) (A)
                 (A) (A) (A) (A) (A) (A) (A) (A) (A) (A) (A) (A)
                 (A) (A) (A) (A) (A) (A) (A) (A) (A) (A) (A) (A)
                 (A) (A) (A) (A) (A) (A) (A) (A) (A) (A) (A) (A)
                 (A) (A) (A) (A) (A) (A) (A) (A) (A) (A) (A) (A)
                 (A) (A) (A) (A) (A) (A) (A) (A) (A) (A) (A) (A)
                 (A) (A) (A) (A) (A) (A)
 The electronic state is 1-A.
 Alpha  occ. eigenvalues --  -10.17357 -10.17350 -10.17347 -10.17331 -10.17330
 Alpha  occ. eigenvalues --  -10.17321  -0.79953  -0.72987  -0.72983  -0.60652
 Alpha  occ. eigenvalues --   -0.60651  -0.50018  -0.47102  -0.44967  -0.42382
 Alpha  occ. eigenvalues --   -0.42381  -0.38381  -0.35039  -0.35035  -0.32944
 Alpha  occ. eigenvalues --   -0.32943  -0.29592  -0.29591  -0.27498
 Alpha virt. eigenvalues --    0.07156   0.08186   0.12083   0.12085   0.14683
 Alpha virt. eigenvalues --    0.14685   0.15944   0.15945   0.22906   0.23065
 Alpha virt. eigenvalues --    0.23069   0.23484   0.23486   0.24506   0.24510
 Alpha virt. eigenvalues --    0.30023   0.37153   0.42936   0.49187   0.51892
 Alpha virt. eigenvalues --    0.53135   0.62557   0.62586   0.64048   0.64071
 Alpha virt. eigenvalues --    0.68974   0.70065   0.70114   0.70476   0.70489
 Alpha virt. eigenvalues --    0.74127   0.74143   0.79446   0.79526   0.83845
 Alpha virt. eigenvalues --    0.84587   0.86755   0.88063   0.88933   0.88939
 Alpha virt. eigenvalues --    0.89703   0.89716   0.92747   0.92748   0.96715
 Alpha virt. eigenvalues --    0.97219   0.97232   0.99299   1.24238   1.24243
 Alpha virt. eigenvalues --    1.29107   1.39295   1.55998   1.59636   1.59644
 Alpha virt. eigenvalues --    1.61366   1.61369   1.67533   1.81862   1.81878
 Alpha virt. eigenvalues --    1.86066   1.86073   1.88300   2.05919   2.05944
 Alpha virt. eigenvalues --    2.08442   2.09163   2.09168   2.15834   2.18070
 Alpha virt. eigenvalues --    2.18084   2.21435   2.21449   2.33549   2.36998
 Alpha virt. eigenvalues --    2.38623   2.38640   2.53268   2.53272   2.59085
 Alpha virt. eigenvalues --    2.59088   2.68256   2.85944   2.86602   4.02187
 Alpha virt. eigenvalues --    4.25778   4.25781   4.47553   4.47556   4.71309
          Condensed to atoms (all electrons):
               1          2          3          4          5          6
     1  C    4.992854   0.366946  -0.035117  -0.014298  -0.035127   0.366939
     2  C    0.366946   4.992859   0.366924  -0.035119  -0.014298  -0.035114
     3  C   -0.035117   0.366924   4.992858   0.366931  -0.035113  -0.014301
     4  C   -0.014298  -0.035119   0.366931   4.992854   0.366953  -0.035125
     5  C   -0.035127  -0.014298  -0.035113   0.366953   4.992876   0.366918
     6  C    0.366939  -0.035114  -0.014301  -0.035125   0.366918   4.992875
     7  H    0.382545  -0.037759   0.002251   0.000362   0.002248  -0.037792
     8  H   -0.037701   0.382488  -0.037686   0.002255   0.000359   0.002243
     9  H    0.002865  -0.036434   0.381221  -0.036344   0.002867   0.000386
    10  H    0.000362   0.002255  -0.037784   0.382545  -0.037767   0.002244
    11  H    0.002872   0.000383   0.002876  -0.036338   0.381099  -0.036336
    12  H   -0.036343   0.002874   0.000385   0.002876  -0.036406   0.381162
    13  H   -0.037691   0.002237   0.000359   0.002237  -0.037638   0.382398
    14  H    0.002240   0.000361   0.002235  -0.037702   0.382467  -0.037696
    15  H    0.381020  -0.036300   0.002864   0.000382   0.002864  -0.036255
    16  H   -0.036338   0.381158  -0.036365   0.002861   0.000385   0.002869
    17  H    0.002253  -0.037629   0.382419  -0.037689   0.002246   0.000358
    18  H    0.000382   0.002860  -0.036281   0.381021  -0.036274   0.002867
               7          8          9         10         11         12
     1  C    0.382545  -0.037701   0.002865   0.000362   0.002872  -0.036343
     2  C   -0.037759   0.382488  -0.036434   0.002255   0.000383   0.002874
     3  C    0.002251  -0.037686   0.381221  -0.037784   0.002876   0.000385
     4  C    0.000362   0.002255  -0.036344   0.382545  -0.036338   0.002876
     5  C    0.002248   0.000359   0.002867  -0.037767   0.381099  -0.036406
     6  C   -0.037792   0.002243   0.000386   0.002244  -0.036336   0.381162
     7  H    0.612656   0.005446  -0.000127   0.000016  -0.000127  -0.013680
     8  H    0.005446   0.612835  -0.013694   0.000082  -0.000026  -0.000127
     9  H   -0.000127  -0.013694   0.611016  -0.013684  -0.000075   0.000009
    10  H    0.000016   0.000082  -0.013684   0.612654  -0.013679  -0.000127
    11  H   -0.000127  -0.000026  -0.000075  -0.013679   0.611122   0.004619
    12  H   -0.013680  -0.000127   0.000009  -0.000127   0.004619   0.611048
    13  H    0.005449   0.000083  -0.000026   0.000085  -0.013656  -0.042024
    14  H    0.000085   0.000016  -0.000127   0.005449  -0.042029  -0.013678
    15  H   -0.042008  -0.013663  -0.000074  -0.000026  -0.000075   0.004608
    16  H   -0.013683  -0.042041   0.004637  -0.000127   0.000009  -0.000075
    17  H    0.000082   0.005430  -0.042036   0.005445  -0.000127  -0.000026
    18  H   -0.000026  -0.000126   0.004616  -0.042008   0.004608  -0.000075
              13         14         15         16         17         18
     1  C   -0.037691   0.002240   0.381020  -0.036338   0.002253   0.000382
     2  C    0.002237   0.000361  -0.036300   0.381158  -0.037629   0.002860
     3  C    0.000359   0.002235   0.002864  -0.036365   0.382419  -0.036281
     4  C    0.002237  -0.037702   0.000382   0.002861  -0.037689   0.381021
     5  C   -0.037638   0.382467   0.002864   0.000385   0.002246  -0.036274
     6  C    0.382398  -0.037696  -0.036255   0.002869   0.000358   0.002867
     7  H    0.005449   0.000085  -0.042008  -0.013683   0.000082  -0.000026
     8  H    0.000083   0.000016  -0.013663  -0.042041   0.005430  -0.000126
     9  H   -0.000026  -0.000127  -0.000074   0.004637  -0.042036   0.004616
    10  H    0.000085   0.005449  -0.000026  -0.000127   0.005445  -0.042008
    11  H   -0.013656  -0.042029  -0.000075   0.000009  -0.000127   0.004608
    12  H   -0.042024  -0.013678   0.004608  -0.000075  -0.000026  -0.000075
    13  H    0.612970   0.005436  -0.013650  -0.000127   0.000016  -0.000126
    14  H    0.005436   0.612879  -0.000126  -0.000026   0.000083  -0.013652
    15  H   -0.013650  -0.000126   0.611392   0.004617  -0.000126   0.000009
    16  H   -0.000127  -0.000026   0.004617   0.611092  -0.013673  -0.000074
    17  H    0.000016   0.000083  -0.000126  -0.013673   0.612924  -0.013661
    18  H   -0.000126  -0.013652   0.000009  -0.000074  -0.013661   0.611390
 Mulliken charges:
               1
     1  C   -0.268662
     2  C   -0.268693
     3  C   -0.268676
     4  C   -0.268663
     5  C   -0.268657
     6  C   -0.268640
     7  H    0.134064
     8  H    0.133828
     9  H    0.135006
    10  H    0.134066
    11  H    0.134878
    12  H    0.134981
    13  H    0.133668
    14  H    0.133787
    15  H    0.134550
    16  H    0.134902
    17  H    0.133710
    18  H    0.134551
 Sum of Mulliken charges =  -0.00000
 Mulliken charges with hydrogens summed into heavy atoms:
               1
     1  C   -0.000047
     2  C    0.000037
     3  C    0.000040
     4  C   -0.000046
     5  C    0.000007
     6  C    0.000009
 Electronic spatial extent (au):  <R**2>=            643.7704
 Charge=             -0.0000 electrons
 Dipole moment (field-independent basis, Debye):
    X=              0.0005    Y=             -0.0001    Z=             -0.0000  Tot=              0.0005
 Quadrupole moment (field-independent basis, Debye-Ang):
   XX=            -39.9476   YY=            -39.9515   ZZ=            -38.7234
   XY=             -0.0004   XZ=             -0.0017   YZ=              0.0039
 Traceless Quadrupole moment (field-independent basis, Debye-Ang):
   XX=             -0.4068   YY=             -0.4106   ZZ=              0.8174
   XY=             -0.0004   XZ=             -0.0017   YZ=              0.0039
 Octapole moment (field-independent basis, Debye-Ang**2):
  XXX=              0.0040  YYY=             -0.0009  ZZZ=             -0.0000  XYY=              0.0016
  XXY=             -0.0001  XXZ=             -0.0014  XZZ=              0.0021  YZZ=             -0.0004
  YYZ=              0.0014  XYZ=             -0.0042
 Hexadecapole moment (field-independent basis, Debye-Ang**3):
 XXXX=           -406.8537 YYYY=           -406.8798 ZZZZ=            -80.2041 XXXY=             -0.0015
 XXXZ=              0.4204 YYYX=             -0.0021 YYYZ=             -0.5517 ZZZX=              0.0743
 ZZZY=              0.0544 XXYY=           -135.6239 XXZZ=            -76.0222 YYZZ=            -76.0217
 XXYZ=              0.5904 YYXZ=             -0.3037 ZZXY=             -0.0018
 N-N= 2.478981754940D+02 E-N=-1.040500624669D+03  KE= 2.333697495430D+02
 Calling FoFJK, ICntrl=      2127 FMM=F ISym2X=0 I1Cent= 0 IOpClX= 0 NMat=1 NMatS=1 NMatT=0.
 ***** Axes restored to original set *****
 -------------------------------------------------------------------
 Center     Atomic                   Forces (Hartrees/Bohr)
 Number     Number              X              Y              Z
 -------------------------------------------------------------------
      1        6           0.000052491    0.000817457   -0.000250189
      2        6           0.000561035    0.000339596   -0.000607287
      3        6           0.000479775   -0.000394357    0.001066056
      4        6          -0.000079390   -0.000810492    0.000251264
      5        6          -0.000630932   -0.000318294    0.000620881
      6        6          -0.000555452    0.000389004   -0.001079323
      7        1          -0.000046298   -0.000545351    0.000676939
      8        1          -0.000843426   -0.000414488   -0.000219234
      9        1          -0.000346450    0.000133116    0.001739680
     10        1           0.000041341    0.000543219   -0.000679220
     11        1           0.000567362    0.000218868    0.002021981
     12        1           0.000378947   -0.000168028   -0.001825078
     13        1           0.000925929   -0.000769497    0.000087526
     14        1           0.000912200    0.000444376    0.000155842
     15        1          -0.000147206   -0.001163141    0.002580339
     16        1          -0.000529301   -0.000191022   -0.001938625
     17        1          -0.000864028    0.000724997   -0.000023440
     18        1           0.000123402    0.001164038   -0.002578112
 -------------------------------------------------------------------
 Cartesian Forces:  Max     0.002580339 RMS     0.000900321

 GradGradGradGradGradGradGradGradGradGradGradGradGradGradGradGradGradGrad
 Berny optimization.
 FormGI is forming the generalized inverse of G from B-inverse, IUseBI=4.
 Internal  Forces:  Max     0.002715223 RMS     0.000613472
 Search for a local minimum.
 Step number   1 out of a maximum of  108
 All quantities printed in internal units (Hartrees-Bohrs-Radians)
 Mixed Optimization -- En-DIIS/RFO-DIIS
 Second derivative matrix not updated -- first step.
 ITU=  0
     Eigenvalues ---    0.00233   0.00233   0.00234   0.01559   0.01559
     Eigenvalues ---    0.02755   0.02762   0.02762   0.02768   0.04570
     Eigenvalues ---    0.04570   0.04573   0.04922   0.04922   0.04968
     Eigenvalues ---    0.07529   0.09526   0.09527   0.09528   0.09528
     Eigenvalues ---    0.09529   0.09530   0.10316   0.10317   0.13031
     Eigenvalues ---    0.13031   0.13032   0.21811   0.21812   0.21999
     Eigenvalues ---    0.26370   0.26374   0.27101   0.27117   0.27119
     Eigenvalues ---    0.27124   0.33717   0.33717   0.33857   0.33873
     Eigenvalues ---    0.33909   0.33925   0.34037   0.34054   0.34092
     Eigenvalues ---    0.34109   0.34216   0.34216
 RFO step:  Lambda=-1.87404857D-03 EMin= 2.32553116D-03
 Linear search not attempted -- first point.
 Iteration  1 RMS(Cart)=  0.04498967 RMS(Int)=  0.00096368
 Iteration  2 RMS(Cart)=  0.00113456 RMS(Int)=  0.00036376
 Iteration  3 RMS(Cart)=  0.00000005 RMS(Int)=  0.00036376
 Variable       Old X    -DE/DX   Delta X   Delta X   Delta X     New X
                                 (Linear)    (Quad)   (Total)
    R1        2.94106  -0.00085   0.00000  -0.00308  -0.00307   2.93799
    R2        2.94112  -0.00087   0.00000  -0.00320  -0.00321   2.93791
    R3        2.06967   0.00025   0.00000   0.00074   0.00074   2.07041
    R4        2.07811  -0.00272   0.00000  -0.00801  -0.00801   2.07010
    R5        2.94083  -0.00077   0.00000  -0.00279  -0.00277   2.93806
    R6        2.07146  -0.00035   0.00000  -0.00101  -0.00101   2.07045
    R7        2.07544  -0.00183   0.00000  -0.00538  -0.00538   2.07006
    R8        2.94110  -0.00084   0.00000  -0.00307  -0.00306   2.93804
    R9        2.07456  -0.00155   0.00000  -0.00454  -0.00454   2.07002
   R10        2.07239  -0.00065   0.00000  -0.00191  -0.00191   2.07048
   R11        2.94108  -0.00087   0.00000  -0.00321  -0.00322   2.93786
   R12        2.06966   0.00026   0.00000   0.00075   0.00075   2.07041
   R13        2.07810  -0.00271   0.00000  -0.00800  -0.00800   2.07010
   R14        2.94107  -0.00086   0.00000  -0.00318  -0.00319   2.93788
   R15        2.07572  -0.00192   0.00000  -0.00565  -0.00565   2.07007
   R16        2.07174  -0.00044   0.00000  -0.00128  -0.00128   2.07046
   R17        2.07485  -0.00164   0.00000  -0.00482  -0.00482   2.07003
   R18        2.07268  -0.00075   0.00000  -0.00218  -0.00218   2.07049
    A1        2.09233  -0.00003   0.00000  -0.00329  -0.00458   2.08775
    A2        1.88482   0.00009   0.00000   0.00323   0.00362   1.88844
    A3        1.87768  -0.00007   0.00000  -0.00169  -0.00131   1.87637
    A4        1.88460   0.00009   0.00000   0.00338   0.00377   1.88837
    A5        1.87782  -0.00007   0.00000  -0.00183  -0.00144   1.87638
    A6        1.82980  -0.00000   0.00000   0.00061   0.00043   1.83023
    A7        2.09240  -0.00003   0.00000  -0.00323  -0.00449   2.08791
    A8        1.88508   0.00009   0.00000   0.00274   0.00312   1.88820
    A9        1.87733  -0.00008   0.00000  -0.00126  -0.00088   1.87646
   A10        1.88540   0.00002   0.00000   0.00215   0.00253   1.88793
   A11        1.87716  -0.00001   0.00000  -0.00075  -0.00036   1.87680
   A12        1.82963   0.00001   0.00000   0.00078   0.00061   1.83024
   A13        2.09240  -0.00002   0.00000  -0.00316  -0.00441   2.08799
   A14        1.87648   0.00003   0.00000  -0.00010   0.00028   1.87676
   A15        1.88590  -0.00001   0.00000   0.00170   0.00207   1.88798
   A16        1.87753  -0.00013   0.00000  -0.00146  -0.00108   1.87645
   A17        1.88503   0.00011   0.00000   0.00271   0.00309   1.88811
   A18        1.82966   0.00001   0.00000   0.00074   0.00057   1.83023
   A19        2.09233  -0.00003   0.00000  -0.00329  -0.00457   2.08776
   A20        1.88450   0.00010   0.00000   0.00346   0.00385   1.88835
   A21        1.87782  -0.00007   0.00000  -0.00174  -0.00135   1.87647
   A22        1.88491   0.00008   0.00000   0.00314   0.00353   1.88844
   A23        1.87768  -0.00008   0.00000  -0.00178  -0.00139   1.87629
   A24        1.82980  -0.00000   0.00000   0.00060   0.00043   1.83023
   A25        2.09224  -0.00001   0.00000  -0.00330  -0.00461   2.08764
   A26        1.87728  -0.00008   0.00000  -0.00123  -0.00084   1.87644
   A27        1.88524   0.00009   0.00000   0.00280   0.00320   1.88844
   A28        1.87704  -0.00002   0.00000  -0.00079  -0.00039   1.87665
   A29        1.88558   0.00001   0.00000   0.00216   0.00255   1.88813
   A30        1.82963   0.00001   0.00000   0.00081   0.00063   1.83026
   A31        2.09224   0.00000   0.00000  -0.00322  -0.00454   2.08771
   A32        1.87748  -0.00013   0.00000  -0.00144  -0.00104   1.87644
   A33        1.88520   0.00011   0.00000   0.00276   0.00316   1.88836
   A34        1.87635   0.00002   0.00000  -0.00014   0.00026   1.87662
   A35        1.88608  -0.00002   0.00000   0.00170   0.00210   1.88819
   A36        1.82966   0.00001   0.00000   0.00077   0.00059   1.83025
    D1       -0.11870  -0.00055   0.00000  -0.09285  -0.09279  -0.21149
    D2        2.04901  -0.00046   0.00000  -0.08988  -0.08993   1.95907
    D3       -2.26798  -0.00044   0.00000  -0.08827  -0.08815  -2.35614
    D4        2.04760  -0.00037   0.00000  -0.08777  -0.08783   1.95977
    D5       -2.06788  -0.00028   0.00000  -0.08479  -0.08497  -2.15285
    D6       -0.10168  -0.00026   0.00000  -0.08318  -0.08319  -0.18487
    D7       -2.26915  -0.00036   0.00000  -0.08634  -0.08623  -2.35537
    D8       -0.10144  -0.00027   0.00000  -0.08336  -0.08337  -0.18481
    D9        1.86475  -0.00025   0.00000  -0.08175  -0.08159   1.78317
   D10        0.12070   0.00056   0.00000   0.09449   0.09443   0.21514
   D11        2.26888   0.00047   0.00000   0.09060   0.09048   2.35937
   D12       -2.04794   0.00048   0.00000   0.09211   0.09218  -1.95577
   D13       -2.04570   0.00038   0.00000   0.08948   0.08954  -1.95616
   D14        0.10248   0.00029   0.00000   0.08558   0.08559   0.18807
   D15        2.06884   0.00030   0.00000   0.08710   0.08728   2.15612
   D16        2.27108   0.00037   0.00000   0.08804   0.08793   2.35901
   D17       -1.86392   0.00029   0.00000   0.08415   0.08398  -1.77994
   D18        0.10243   0.00029   0.00000   0.08566   0.08568   0.18811
   D19        0.11766   0.00055   0.00000   0.09201   0.09195   0.20961
   D20        2.26669   0.00039   0.00000   0.08754   0.08743   2.35411
   D21       -2.05029   0.00041   0.00000   0.08916   0.08922  -1.96107
   D22       -2.04990   0.00042   0.00000   0.08875   0.08881  -1.96109
   D23        0.09913   0.00026   0.00000   0.08427   0.08428   0.18342
   D24        2.06535   0.00029   0.00000   0.08589   0.08608   2.15142
   D25        2.26702   0.00041   0.00000   0.08718   0.08707   2.35409
   D26       -1.86713   0.00025   0.00000   0.08270   0.08254  -1.78459
   D27        0.09908   0.00027   0.00000   0.08432   0.08433   0.18341
   D28       -0.11862  -0.00055   0.00000  -0.09279  -0.09274  -0.21136
   D29        2.04782  -0.00037   0.00000  -0.08782  -0.08788   1.95994
   D30       -2.26901  -0.00036   0.00000  -0.08631  -0.08620  -2.35521
   D31       -2.26714  -0.00047   0.00000  -0.08898  -0.08887  -2.35601
   D32       -0.10070  -0.00029   0.00000  -0.08400  -0.08402  -0.18472
   D33        1.86566  -0.00028   0.00000  -0.08249  -0.08233   1.78333
   D34        2.04974  -0.00047   0.00000  -0.09042  -0.09048   1.95926
   D35       -2.06700  -0.00030   0.00000  -0.08545  -0.08563  -2.15264
   D36       -0.10065  -0.00028   0.00000  -0.08394  -0.08395  -0.18459
   D37        0.12063   0.00056   0.00000   0.09442   0.09436   0.21498
   D38        2.26958   0.00045   0.00000   0.08975   0.08964   2.35921
   D39       -2.04735   0.00047   0.00000   0.09143   0.09149  -1.95586
   D40       -2.04562   0.00037   0.00000   0.08930   0.08935  -1.95627
   D41        0.10333   0.00026   0.00000   0.08462   0.08463   0.18796
   D42        2.06959   0.00028   0.00000   0.08630   0.08649   2.15608
   D43        2.27108   0.00037   0.00000   0.08795   0.08784   2.35892
   D44       -1.86316   0.00026   0.00000   0.08328   0.08312  -1.78004
   D45        0.10310   0.00028   0.00000   0.08496   0.08497   0.18807
   D46       -0.12167  -0.00056   0.00000  -0.09528  -0.09522  -0.21689
   D47       -2.27039  -0.00041   0.00000  -0.09075  -0.09064  -2.36103
   D48        2.04656  -0.00042   0.00000  -0.09239  -0.09246   1.95410
   D49       -2.27073  -0.00043   0.00000  -0.09039  -0.09028  -2.36102
   D50        1.86372  -0.00027   0.00000  -0.08587  -0.08570   1.77803
   D51       -0.10251  -0.00028   0.00000  -0.08751  -0.08752  -0.19003
   D52        2.04615  -0.00043   0.00000  -0.09198  -0.09204   1.95411
   D53       -0.10257  -0.00028   0.00000  -0.08745  -0.08746  -0.19004
   D54       -2.06881  -0.00029   0.00000  -0.08909  -0.08928  -2.15809
         Item               Value     Threshold  Converged?
 Maximum Force            0.002715     0.000450     NO 
 RMS     Force            0.000613     0.000300     NO 
 Maximum Displacement     0.115482     0.001800     NO 
 RMS     Displacement     0.045053     0.001200     NO 
 Predicted change in Energy=-1.319451D-03
 GradGradGradGradGradGradGradGradGradGradGradGradGradGradGradGradGradGrad

                          Input orientation:                          
 ---------------------------------------------------------------------
 Center     Atomic      Atomic             Coordinates (Angstroms)
 Number     Number       Type             X           Y           Z
 ---------------------------------------------------------------------
      1          6           0        0.167306    1.542669    0.049234
      2          6           0        1.419798    0.626479   -0.045625
      3          6           0        1.252252   -0.916454    0.046817
      4          6           0       -0.167573   -1.542645   -0.049170
      5          6           0       -1.419681   -0.626288    0.048053
      6          6           0       -1.252166    0.916249   -0.049307
      7          1           0        0.227326    2.108451    0.985536
      8          1           0        1.942828    0.857976   -0.980109
      9          1           0        1.863574   -1.362761   -0.745025
     10          1           0       -0.229397   -2.108336   -0.985408
     11          1           0       -2.114735   -0.933049   -0.741104
     12          1           0       -1.865981    1.365067    0.739185
     13          1           0       -1.709694    1.251394   -0.986758
     14          1           0       -1.939398   -0.855274    0.985009
     15          1           0        0.250203    2.297026   -0.740758
     16          1           0        2.111980    0.931315    0.746791
     17          1           0        1.712607   -1.254772    0.981732
     18          1           0       -0.249251   -2.297044    0.740909
 ---------------------------------------------------------------------
                    Distance matrix (angstroms):
                    1          2          3          4          5
     1  C    0.000000
     2  C    1.554715   0.000000
     3  C    2.687824   1.554753   0.000000
     4  C    3.104994   2.687910   1.554745   0.000000
     5  C    2.687546   3.104970   2.687643   1.554650   0.000000
     6  C    1.554675   2.687633   3.104859   2.687471   1.554657
     7  H    1.095615   2.163683   3.328921   3.815372   3.327207
     8  H    2.163522   1.095633   2.163348   3.329177   3.816624
     9  H    3.456833   2.154802   1.095408   2.154561   3.457040
    10  H    3.815455   3.329002   2.163644   1.095615   2.163628
    11  H    3.458544   3.925397   3.457990   2.154488   1.095432
    12  H    2.154491   3.458003   3.925314   3.458451   2.154610
    13  H    2.163619   3.327157   3.813262   3.326239   2.163477
    14  H    3.326260   3.813397   3.327247   2.163647   1.095640
    15  H    1.095451   2.154504   3.456997   3.923761   3.457817
    16  H    2.154553   1.095429   2.154842   3.456934   3.922625
    17  H    3.329141   2.163401   1.095651   2.163493   3.328359
    18  H    3.923688   3.457072   2.154601   1.095451   2.154386
                    6          7          8          9         10
     6  C    0.000000
     7  H    2.163595   0.000000
     8  H    3.328329   2.893163   0.000000
     9  H    3.922466   4.209687   2.234551   0.000000
    10  H    3.327230   4.677020   3.676629   2.234769   0.000000
    11  H    2.154649   4.209187   4.441701   4.001451   2.235058
    12  H    1.095412   2.235004   4.209529   4.853195   4.209176
    13  H    1.095658   2.894224   3.673654   4.434014   3.671385
    14  H    2.163421   3.671288   4.676386   4.208700   2.894273
    15  H    2.154475   1.736714   2.234531   3.999627   4.438140
    16  H    3.457091   2.234853   1.736714   2.747727   4.209755
    17  H    3.816575   3.676594   2.892322   1.736704   2.893024
    18  H    3.457677   4.437945   4.209663   2.746801   1.736714
                   11         12         13         14         15
    11  H    0.000000
    12  H    2.744899   0.000000
    13  H    2.235217   1.736728   0.000000
    14  H    1.736738   2.235113   2.894594   0.000000
    15  H    4.003288   2.745362   2.234963   4.208279   0.000000
    16  H    4.853329   4.001546   4.208662   4.434220   2.746667
    17  H    4.209538   4.441697   4.676319   3.673792   4.209615
    18  H    2.745337   4.003108   4.208223   2.234923   4.852862
                   16         17         18
    16  H    0.000000
    17  H    2.234652   0.000000
    18  H    3.999718   2.234550   0.000000
 Stoichiometry    C6H12
 Framework group  C1[X(C6H12)]
 Deg. of freedom    48
 Full point group                 C1      NOp   1
 Largest Abelian subgroup         C1      NOp   1
 Largest concise Abelian subgroup C1      NOp   1
                         Standard orientation:                         
 ---------------------------------------------------------------------
 Center     Atomic      Atomic             Coordinates (Angstroms)
 Number     Number       Type             X           Y           Z
 ---------------------------------------------------------------------
      1          6           0        1.435133    0.590188    0.048088
      2          6           0        1.228742   -0.947842   -0.046807
      3          6           0       -0.206615   -1.537971    0.046781
      4          6           0       -1.435235   -0.589954   -0.048024
      5          6           0       -1.228511    0.947817    0.049234
      6          6           0        0.206478    1.537785   -0.049271
      7          1           0        1.961620    0.807695    0.983970
      8          1           0        1.681230   -1.296541   -0.981727
      9          1           0       -0.307224   -2.288140   -0.745080
     10          1           0       -1.962505   -0.805834   -0.983842
     11          1           0       -1.830791    1.411903   -0.739343
     12          1           0        0.308099    2.291345    0.739238
     13          1           0        0.281450    2.099976   -0.986708
     14          1           0       -1.677208    1.294806    0.986623
     15          1           0        2.136727    0.877948   -0.742464
     16          1           0        1.827960   -1.410325    0.745033
     17          1           0       -0.283026   -2.104161    0.981683
     18          1           0       -2.136283   -0.878807    0.742614
 ---------------------------------------------------------------------
 Rotational constants (GHZ):           4.0182013           4.0179027           2.1704453
 Standard basis: 6-31G(d) (6D, 7F)
 There are   114 symmetry adapted cartesian basis functions of A   symmetry.
 There are   114 symmetry adapted basis functions of A   symmetry.
   114 basis functions,   216 primitive gaussians,   114 cartesian basis functions
    24 alpha electrons       24 beta electrons
       nuclear repulsion energy       248.3161630303 Hartrees.
 NAtoms=   18 NActive=   18 NUniq=   18 SFac= 1.00D+00 NAtFMM=   60 NAOKFM=F Big=F
 Integral buffers will be    131072 words long.
 Raffenetti 2 integral format.
 Two-electron integral symmetry is turned on.
 One-electron integrals computed using PRISM.
 NBasis=   114 RedAO= T EigKep=  2.57D-03  NBF=   114
 NBsUse=   114 1.00D-06 EigRej= -1.00D+00 NBFU=   114
 Initial guess from the checkpoint file:  "planar_chex_mode1.chk"
 B after Tr=     0.000000   -0.000000   -0.000000
         Rot=    0.876272    0.000208    0.000181    0.481817 Ang=  57.61 deg.
 ExpMin= 1.61D-01 ExpMax= 3.05D+03 ExpMxC= 4.57D+02 IAcc=3 IRadAn=         5 AccDes= 0.00D+00
 Harris functional with IExCor=  402 and IRadAn=       5 diagonalized for initial guess.
 HarFok:  IExCor=  402 AccDes= 0.00D+00 IRadAn=         5 IDoV= 1 UseB2=F ITyADJ=14
 ICtDFT=  3500011 ScaDFX=  1.000000  1.000000  1.000000  1.000000
 FoFCou: FMM=F IPFlag=           0 FMFlag=      100000 FMFlg1=           0
         NFxFlg=           0 DoJE=T BraDBF=F KetDBF=T FulRan=T
         wScrn=  0.000000 ICntrl=       500 IOpCl=  0 I1Cent=   200000004 NGrid=           0
         NMat0=    1 NMatS0=      1 NMatT0=    0 NMatD0=    1 NMtDS0=    0 NMtDT0=    0
 Petite list used in FoFCou.
 Keep R1 ints in memory in canonical form, NReq=25245998.
 Requested convergence on RMS density matrix=1.00D-08 within 128 cycles.
 Requested convergence on MAX density matrix=1.00D-06.
 Requested convergence on             energy=1.00D-06.
 No special actions if energy rises.
 Integral accuracy reduced to 1.0D-05 until final iterations.
 Initial convergence to 1.0D-05 achieved.  Increase integral accuracy.
 SCF Done:  E(RB3LYP) =  -235.842740443     A.U. after    9 cycles
            NFock=  9  Conv=0.40D-08     -V/T= 2.0104
 Calling FoFJK, ICntrl=      2127 FMM=F ISym2X=0 I1Cent= 0 IOpClX= 0 NMat=1 NMatS=1 NMatT=0.
 ***** Axes restored to original set *****
 -------------------------------------------------------------------
 Center     Atomic                   Forces (Hartrees/Bohr)
 Number     Number              X              Y              Z
 -------------------------------------------------------------------
      1        6          -0.000088963   -0.000663141    0.003174897
      2        6          -0.000600234   -0.000227962   -0.003248645
      3        6          -0.000531314    0.000365695    0.003274496
      4        6           0.000062462    0.000665995   -0.003173616
      5        6           0.000611671    0.000262479    0.003292923
      6        6           0.000536053   -0.000401319   -0.003320117
      7        1          -0.000113224   -0.001144005    0.001105493
      8        1          -0.001031814   -0.000434336   -0.001074721
      9        1           0.000792137   -0.000561833    0.000929703
     10        1           0.000125949    0.001141320   -0.001104752
     11        1          -0.000911677   -0.000373473    0.000961365
     12        1          -0.000815302    0.000568326   -0.000953122
     13        1           0.000945992   -0.000669006   -0.001092846
     14        1           0.001066318    0.000439936    0.001100537
     15        1           0.000086476    0.000976967    0.000970876
     16        1           0.000887323    0.000373308   -0.000938477
     17        1          -0.000912502    0.000655012    0.001066219
     18        1          -0.000109350   -0.000973963   -0.000970213
 -------------------------------------------------------------------
 Cartesian Forces:  Max     0.003320117 RMS     0.001305895

 GradGradGradGradGradGradGradGradGradGradGradGradGradGradGradGradGradGrad
 Berny optimization.
 Using GEDIIS/GDIIS optimizer.
 FormGI is forming the generalized inverse of G from B-inverse, IUseBI=4.
 Internal  Forces:  Max     0.001053027 RMS     0.000511161
 Search for a local minimum.
 Step number   2 out of a maximum of  108
 All quantities printed in internal units (Hartrees-Bohrs-Radians)
 Mixed Optimization -- En-DIIS/RFO-DIIS
 Swapping is turned off.
 Update second derivatives using D2CorX and points    1    2
 DE= -2.51D-03 DEPred=-1.32D-03 R= 1.90D+00
 TightC=F SS=  1.41D+00  RLast= 6.46D-01 DXNew= 5.0454D-01 1.9384D+00
 Trust test= 1.90D+00 RLast= 6.46D-01 DXMaxT set to 5.05D-01
 ITU=  1  0
     Eigenvalues ---   -0.00324   0.00238   0.00238   0.01565   0.01568
     Eigenvalues ---    0.02720   0.02776   0.02797   0.02798   0.04570
     Eigenvalues ---    0.04570   0.04578   0.04930   0.04930   0.04976
     Eigenvalues ---    0.07478   0.09479   0.09479   0.09483   0.09484
     Eigenvalues ---    0.09485   0.09488   0.10209   0.10231   0.13003
     Eigenvalues ---    0.13004   0.13005   0.21418   0.21420   0.21995
     Eigenvalues ---    0.26199   0.26365   0.26376   0.27061   0.27118
     Eigenvalues ---    0.27122   0.29410   0.33717   0.33804   0.33866
     Eigenvalues ---    0.33897   0.33920   0.34019   0.34048   0.34086
     Eigenvalues ---    0.34106   0.34207   0.34216
 Use linear search instead of GDIIS.
 RFO step:  Lambda=-6.75491557D-03 EMin=-3.23809847D-03
 Skip linear search -- no minimum in search direction.
 Iteration  1 RMS(Cart)=  0.06926104 RMS(Int)=  0.00236779
 Iteration  2 RMS(Cart)=  0.00276635 RMS(Int)=  0.00111355
 Iteration  3 RMS(Cart)=  0.00000109 RMS(Int)=  0.00111354
 Iteration  4 RMS(Cart)=  0.00000000 RMS(Int)=  0.00111354
 Variable       Old X    -DE/DX   Delta X   Delta X   Delta X     New X
                                 (Linear)    (Quad)   (Total)
    R1        2.93799  -0.00066   0.00000  -0.00561  -0.00558   2.93240
    R2        2.93791  -0.00066   0.00000  -0.00570  -0.00573   2.93218
    R3        2.07041   0.00035   0.00000   0.00252   0.00252   2.07293
    R4        2.07010  -0.00002   0.00000   0.00193   0.00193   2.07203
    R5        2.93806  -0.00064   0.00000  -0.00540  -0.00535   2.93271
    R6        2.07045   0.00033   0.00000   0.00286   0.00286   2.07331
    R7        2.07006  -0.00001   0.00000   0.00129   0.00129   2.07135
    R8        2.93804  -0.00065   0.00000  -0.00555  -0.00552   2.93252
    R9        2.07002  -0.00000   0.00000   0.00118   0.00118   2.07120
   R10        2.07048   0.00032   0.00000   0.00304   0.00304   2.07352
   R11        2.93786  -0.00067   0.00000  -0.00574  -0.00577   2.93209
   R12        2.07041   0.00035   0.00000   0.00251   0.00251   2.07292
   R13        2.07010  -0.00002   0.00000   0.00193   0.00193   2.07203
   R14        2.93788  -0.00066   0.00000  -0.00576  -0.00581   2.93206
   R15        2.07007  -0.00001   0.00000   0.00140   0.00140   2.07147
   R16        2.07046   0.00034   0.00000   0.00302   0.00302   2.07348
   R17        2.07003   0.00000   0.00000   0.00128   0.00128   2.07131
   R18        2.07049   0.00034   0.00000   0.00320   0.00320   2.07369
    A1        2.08775  -0.00006   0.00000  -0.01005  -0.01403   2.07372
    A2        1.88844   0.00012   0.00000   0.01055   0.01175   1.90019
    A3        1.87637  -0.00011   0.00000  -0.00632  -0.00524   1.87114
    A4        1.88837   0.00014   0.00000   0.01079   0.01199   1.90036
    A5        1.87638  -0.00012   0.00000  -0.00654  -0.00547   1.87091
    A6        1.83023   0.00004   0.00000   0.00280   0.00230   1.83254
    A7        2.08791  -0.00007   0.00000  -0.00992  -0.01383   2.07408
    A8        1.88820   0.00012   0.00000   0.01080   0.01198   1.90018
    A9        1.87646  -0.00010   0.00000  -0.00650  -0.00547   1.87099
   A10        1.88793   0.00016   0.00000   0.01168   0.01286   1.90078
   A11        1.87680  -0.00014   0.00000  -0.00755  -0.00650   1.87029
   A12        1.83024   0.00003   0.00000   0.00268   0.00220   1.83244
   A13        2.08799  -0.00007   0.00000  -0.00998  -0.01388   2.07410
   A14        1.87676  -0.00013   0.00000  -0.00758  -0.00653   1.87023
   A15        1.88798   0.00016   0.00000   0.01176   0.01293   1.90091
   A16        1.87645  -0.00011   0.00000  -0.00659  -0.00555   1.87090
   A17        1.88811   0.00013   0.00000   0.01090   0.01207   1.90019
   A18        1.83023   0.00003   0.00000   0.00267   0.00220   1.83243
   A19        2.08776  -0.00006   0.00000  -0.01004  -0.01402   2.07375
   A20        1.88835   0.00014   0.00000   0.01075   0.01194   1.90029
   A21        1.87647  -0.00012   0.00000  -0.00644  -0.00536   1.87110
   A22        1.88844   0.00013   0.00000   0.01058   0.01178   1.90022
   A23        1.87629  -0.00012   0.00000  -0.00641  -0.00533   1.87096
   A24        1.83023   0.00004   0.00000   0.00279   0.00229   1.83253
   A25        2.08764  -0.00007   0.00000  -0.01034  -0.01442   2.07322
   A26        1.87644  -0.00010   0.00000  -0.00670  -0.00562   1.87083
   A27        1.88844   0.00013   0.00000   0.01113   0.01235   1.90079
   A28        1.87665  -0.00015   0.00000  -0.00777  -0.00668   1.86997
   A29        1.88813   0.00016   0.00000   0.01210   0.01334   1.90146
   A30        1.83026   0.00004   0.00000   0.00280   0.00231   1.83257
   A31        2.08771  -0.00007   0.00000  -0.01041  -0.01449   2.07321
   A32        1.87644  -0.00011   0.00000  -0.00680  -0.00572   1.87072
   A33        1.88836   0.00013   0.00000   0.01124   0.01246   1.90082
   A34        1.87662  -0.00014   0.00000  -0.00780  -0.00671   1.86990
   A35        1.88819   0.00016   0.00000   0.01220   0.01343   1.90161
   A36        1.83025   0.00004   0.00000   0.00281   0.00232   1.83257
    D1       -0.21149  -0.00103   0.00000  -0.16122  -0.16087  -0.37235
    D2        1.95907  -0.00075   0.00000  -0.14288  -0.14298   1.81609
    D3       -2.35614  -0.00070   0.00000  -0.13777  -0.13738  -2.49352
    D4        1.95977  -0.00077   0.00000  -0.14445  -0.14457   1.81521
    D5       -2.15285  -0.00049   0.00000  -0.12611  -0.12669  -2.27954
    D6       -0.18487  -0.00044   0.00000  -0.12100  -0.12108  -0.30596
    D7       -2.35537  -0.00072   0.00000  -0.13924  -0.13885  -2.49422
    D8       -0.18481  -0.00044   0.00000  -0.12089  -0.12096  -0.30577
    D9        1.78317  -0.00039   0.00000  -0.11579  -0.11536   1.66780
   D10        0.21514   0.00105   0.00000   0.16402   0.16365   0.37879
   D11        2.35937   0.00071   0.00000   0.13963   0.13922   2.49859
   D12       -1.95577   0.00076   0.00000   0.14495   0.14507  -1.81070
   D13       -1.95616   0.00079   0.00000   0.14737   0.14747  -1.80869
   D14        0.18807   0.00045   0.00000   0.12297   0.12304   0.31111
   D15        2.15612   0.00050   0.00000   0.12829   0.12889   2.28501
   D16        2.35901   0.00074   0.00000   0.14215   0.14175   2.50076
   D17       -1.77994   0.00040   0.00000   0.11776   0.11732  -1.66262
   D18        0.18811   0.00045   0.00000   0.12308   0.12316   0.31127
   D19        0.20961   0.00102   0.00000   0.15974   0.15938   0.36899
   D20        2.35411   0.00070   0.00000   0.13662   0.13623   2.49035
   D21       -1.96107   0.00075   0.00000   0.14165   0.14176  -1.81931
   D22       -1.96109   0.00076   0.00000   0.14182   0.14192  -1.81916
   D23        0.18342   0.00044   0.00000   0.11869   0.11877   0.30219
   D24        2.15142   0.00049   0.00000   0.12373   0.12430   2.27572
   D25        2.35409   0.00071   0.00000   0.13680   0.13641   2.49050
   D26       -1.78459   0.00039   0.00000   0.11368   0.11326  -1.67133
   D27        0.18341   0.00044   0.00000   0.11871   0.11879   0.30221
   D28       -0.21136  -0.00103   0.00000  -0.16109  -0.16073  -0.37209
   D29        1.95994  -0.00077   0.00000  -0.14443  -0.14454   1.81539
   D30       -2.35521  -0.00072   0.00000  -0.13919  -0.13880  -2.49400
   D31       -2.35601  -0.00070   0.00000  -0.13749  -0.13710  -2.49311
   D32       -0.18472  -0.00044   0.00000  -0.12083  -0.12091  -0.30563
   D33        1.78333  -0.00039   0.00000  -0.11559  -0.11516   1.66816
   D34        1.95926  -0.00075   0.00000  -0.14259  -0.14270   1.81656
   D35       -2.15264  -0.00049   0.00000  -0.12593  -0.12651  -2.27915
   D36       -0.18459  -0.00044   0.00000  -0.12070  -0.12076  -0.30536
   D37        0.21498   0.00105   0.00000   0.16390   0.16353   0.37852
   D38        2.35921   0.00071   0.00000   0.13969   0.13929   2.49850
   D39       -1.95586   0.00076   0.00000   0.14500   0.14512  -1.81074
   D40       -1.95627   0.00079   0.00000   0.14716   0.14726  -1.80900
   D41        0.18796   0.00044   0.00000   0.12294   0.12302   0.31098
   D42        2.15608   0.00050   0.00000   0.12826   0.12885   2.28492
   D43        2.35892   0.00074   0.00000   0.14199   0.14158   2.50050
   D44       -1.78004   0.00040   0.00000   0.11777   0.11734  -1.66270
   D45        0.18807   0.00045   0.00000   0.12309   0.12317   0.31124
   D46       -0.21689  -0.00105   0.00000  -0.16536  -0.16496  -0.38185
   D47       -2.36103  -0.00073   0.00000  -0.14144  -0.14103  -2.50206
   D48        1.95410  -0.00078   0.00000  -0.14674  -0.14685   1.80725
   D49       -2.36102  -0.00073   0.00000  -0.14166  -0.14125  -2.50227
   D50        1.77803  -0.00041   0.00000  -0.11775  -0.11732   1.66070
   D51       -0.19003  -0.00046   0.00000  -0.12305  -0.12313  -0.31317
   D52        1.95411  -0.00078   0.00000  -0.14692  -0.14702   1.80709
   D53       -0.19004  -0.00046   0.00000  -0.12301  -0.12309  -0.31313
   D54       -2.15809  -0.00051   0.00000  -0.12831  -0.12890  -2.28700
         Item               Value     Threshold  Converged?
 Maximum Force            0.001053     0.000450     NO 
 RMS     Force            0.000511     0.000300     NO 
 Maximum Displacement     0.179766     0.001800     NO 
 RMS     Displacement     0.069742     0.001200     NO 
 Predicted change in Energy=-6.465859D-03
 GradGradGradGradGradGradGradGradGradGradGradGradGradGradGradGradGradGrad

                          Input orientation:                          
 ---------------------------------------------------------------------
 Center     Atomic      Atomic             Coordinates (Angstroms)
 Number     Number       Type             X           Y           Z
 ---------------------------------------------------------------------
      1          6           0        0.165990    1.533337    0.085677
      2          6           0        1.411371    0.622915   -0.082011
      3          6           0        1.244800   -0.911164    0.083259
      4          6           0       -0.166813   -1.533265   -0.085557
      5          6           0       -1.411012   -0.622287    0.086326
      6          6           0       -1.244543    0.910491   -0.087696
      7          1           0        0.217627    2.028734    1.063025
      8          1           0        1.871945    0.827559   -1.056551
      9          1           0        1.899716   -1.388818   -0.654450
     10          1           0       -0.221886   -2.028493   -1.062801
     11          1           0       -2.157208   -0.951435   -0.646101
     12          1           0       -1.903362    1.392064    0.644057
     13          1           0       -1.644878    1.203658   -1.066453
     14          1           0       -1.865808   -0.822443    1.064607
     15          1           0        0.255108    2.343277   -0.648016
     16          1           0        2.153068    0.949070    0.656212
     17          1           0        1.650068   -1.209955    1.058174
     18          1           0       -0.254183   -2.343244    0.648301
 ---------------------------------------------------------------------
                    Distance matrix (angstroms):
                    1          2          3          4          5
     1  C    0.000000
     2  C    1.551761   0.000000
     3  C    2.671970   1.551921   0.000000
     4  C    3.089357   2.672039   1.551825   0.000000
     5  C    2.670890   3.089452   2.671478   1.551598   0.000000
     6  C    1.551643   2.671444   3.089414   2.670852   1.551582
     7  H    1.096947   2.170820   3.264663   3.762296   3.261030
     8  H    2.170966   1.097148   2.171551   3.266933   3.766434
     9  H    3.477440   2.147845   1.096030   2.148265   3.478108
    10  H    3.762457   3.264880   2.170955   1.096945   2.170697
    11  H    3.479488   3.941007   3.479546   2.148117   1.096173
    12  H    2.148013   3.479400   3.940848   3.479295   2.147344
    13  H    2.171482   3.262982   3.760924   3.261530   2.172020
    14  H    3.261319   3.760811   3.262943   2.171343   1.097239
    15  H    1.096472   2.148709   3.479316   3.939792   3.479912
    16  H    2.148338   1.096113   2.147952   3.477651   3.936572
    17  H    3.267092   2.171730   1.097259   2.171107   3.264973
    18  H    3.939667   3.479300   2.148738   1.096470   2.148432
                    6          7          8          9         10
     6  C    0.000000
     7  H    2.170844   0.000000
     8  H    3.264667   2.944858   0.000000
     9  H    3.936292   4.178374   2.252728   0.000000
    10  H    3.261025   4.601456   3.541355   2.253248   0.000000
    11  H    2.147451   4.176405   4.423501   4.080441   2.253699
    12  H    1.096092   2.253770   4.178956   4.887006   4.176234
    13  H    1.097352   2.946923   3.536890   4.410763   3.531532
    14  H    2.171827   3.531276   4.603543   4.177931   2.946676
    15  H    2.148438   1.740116   2.253545   4.078396   4.417232
    16  H    3.478310   2.253242   1.739929   2.692164   4.178671
    17  H    3.766707   3.541330   2.944954   1.739942   2.944953
    18  H    3.479842   4.416876   4.181020   2.692093   1.740109
                   11         12         13         14         15
    11  H    0.000000
    12  H    2.687180   0.000000
    13  H    2.254685   1.740159   0.000000
    14  H    1.740136   2.254399   2.948781   0.000000
    15  H    4.083430   2.689470   2.254722   4.177696   0.000000
    16  H    4.887373   4.080565   4.178131   4.410942   2.692039
    17  H    4.179322   4.423670   4.603937   3.537172   4.181203
    18  H    2.689630   4.083178   4.177910   2.254658   4.889100
                   16         17         18
    16  H    0.000000
    17  H    2.252992   0.000000
    18  H    4.078511   2.253555   0.000000
 Stoichiometry    C6H12
 Framework group  C1[X(C6H12)]
 Deg. of freedom    48
 Full point group                 C1      NOp   1
 Largest Abelian subgroup         C1      NOp   1
 Largest concise Abelian subgroup C1      NOp   1
                         Standard orientation:                         
 ---------------------------------------------------------------------
 Center     Atomic      Atomic             Coordinates (Angstroms)
 Number     Number       Type             X           Y           Z
 ---------------------------------------------------------------------
      1          6           0        0.588284    1.425720    0.085192
      2          6           0        1.529238    0.203301   -0.082918
      3          6           0        0.940353   -1.222952    0.082838
      4          6           0       -0.589015   -1.425438   -0.085072
      5          6           0       -1.528675   -0.202816    0.087233
      6          6           0       -0.940257    1.222216   -0.087274
      7          1           0        0.776982    1.887004    1.062384
      8          1           0        2.028101    0.270864   -1.057754
      9          1           0        1.435113   -1.864788   -0.655093
     10          1           0       -0.780964   -1.885598   -1.062157
     11          1           0       -2.337573   -0.310204   -0.644715
     12          1           0       -1.437672    1.868906    0.644701
     13          1           0       -1.243189    1.615552   -1.065896
     14          1           0       -2.020734   -0.267685    1.065805
     15          1           0        0.899948    2.178338   -0.648758
     16          1           0        2.332983    0.309074    0.654829
     17          1           0        1.246445   -1.623067    1.057617
     18          1           0       -0.899011   -2.178583    0.649042
 ---------------------------------------------------------------------
 Rotational constants (GHZ):           4.0457362           4.0455414           2.1967747
 Standard basis: 6-31G(d) (6D, 7F)
 There are   114 symmetry adapted cartesian basis functions of A   symmetry.
 There are   114 symmetry adapted basis functions of A   symmetry.
   114 basis functions,   216 primitive gaussians,   114 cartesian basis functions
    24 alpha electrons       24 beta electrons
       nuclear repulsion energy       248.9818479197 Hartrees.
 NAtoms=   18 NActive=   18 NUniq=   18 SFac= 1.00D+00 NAtFMM=   60 NAOKFM=F Big=F
 Integral buffers will be    131072 words long.
 Raffenetti 2 integral format.
 Two-electron integral symmetry is turned on.
 One-electron integrals computed using PRISM.
 NBasis=   114 RedAO= T EigKep=  2.85D-03  NBF=   114
 NBsUse=   114 1.00D-06 EigRej= -1.00D+00 NBFU=   114
 Initial guess from the checkpoint file:  "planar_chex_mode1.chk"
 B after Tr=    -0.000000    0.000000    0.000000
         Rot=    0.923165   -0.000096    0.000076   -0.384404 Ang= -45.21 deg.
 ExpMin= 1.61D-01 ExpMax= 3.05D+03 ExpMxC= 4.57D+02 IAcc=3 IRadAn=         5 AccDes= 0.00D+00
 Harris functional with IExCor=  402 and IRadAn=       5 diagonalized for initial guess.
 HarFok:  IExCor=  402 AccDes= 0.00D+00 IRadAn=         5 IDoV= 1 UseB2=F ITyADJ=14
 ICtDFT=  3500011 ScaDFX=  1.000000  1.000000  1.000000  1.000000
 FoFCou: FMM=F IPFlag=           0 FMFlag=      100000 FMFlg1=           0
         NFxFlg=           0 DoJE=T BraDBF=F KetDBF=T FulRan=T
         wScrn=  0.000000 ICntrl=       500 IOpCl=  0 I1Cent=   200000004 NGrid=           0
         NMat0=    1 NMatS0=      1 NMatT0=    0 NMatD0=    1 NMtDS0=    0 NMtDT0=    0
 Petite list used in FoFCou.
 Keep R1 ints in memory in canonical form, NReq=25245998.
 Requested convergence on RMS density matrix=1.00D-08 within 128 cycles.
 Requested convergence on MAX density matrix=1.00D-06.
 Requested convergence on             energy=1.00D-06.
 No special actions if energy rises.
 Integral accuracy reduced to 1.0D-05 until final iterations.
 Initial convergence to 1.0D-05 achieved.  Increase integral accuracy.
 SCF Done:  E(RB3LYP) =  -235.848944611     A.U. after   10 cycles
            NFock= 10  Conv=0.17D-08     -V/T= 2.0105
 Calling FoFJK, ICntrl=      2127 FMM=F ISym2X=0 I1Cent= 0 IOpClX= 0 NMat=1 NMatS=1 NMatT=0.
 ***** Axes restored to original set *****
 -------------------------------------------------------------------
 Center     Atomic                   Forces (Hartrees/Bohr)
 Number     Number              X              Y              Z
 -------------------------------------------------------------------
      1        6          -0.000036783   -0.000110508    0.001789049
      2        6          -0.000160738   -0.000062276   -0.001865069
      3        6          -0.000181541    0.000046033    0.001939998
      4        6           0.000009519    0.000113541   -0.001790523
      5        6           0.000143320    0.000070734    0.001804804
      6        6           0.000162604   -0.000050385   -0.001877342
      7        1          -0.000301154   -0.002600045    0.001150235
      8        1          -0.002445559   -0.001139747   -0.001038681
      9        1           0.001433509   -0.001129406    0.001971651
     10        1           0.000289359    0.002599584   -0.001150798
     11        1          -0.001626106   -0.000774172    0.002067291
     12        1          -0.001456726    0.001130837   -0.002040858
     13        1           0.002238133   -0.001721545   -0.000958967
     14        1           0.002521158    0.001181762    0.001023064
     15        1           0.000163142    0.001588672    0.002147148
     16        1           0.001604701    0.000778987   -0.002000746
     17        1          -0.002172193    0.001663705    0.000975065
     18        1          -0.000184643   -0.001585771   -0.002145320
 -------------------------------------------------------------------
 Cartesian Forces:  Max     0.002600045 RMS     0.001460605

 GradGradGradGradGradGradGradGradGradGradGradGradGradGradGradGradGradGrad
 Berny optimization.
 Using GEDIIS/GDIIS optimizer.
 FormGI is forming the generalized inverse of G from B-inverse, IUseBI=4.
 Internal  Forces:  Max     0.001088194 RMS     0.000739597
 Search for a local minimum.
 Step number   3 out of a maximum of  108
 All quantities printed in internal units (Hartrees-Bohrs-Radians)
 Mixed Optimization -- En-DIIS/RFO-DIIS
 Update second derivatives using D2CorX and points    2    3
 DE= -6.20D-03 DEPred=-6.47D-03 R= 9.60D-01
 TightC=F SS=  1.41D+00  RLast= 1.00D+00 DXNew= 8.4853D-01 3.0014D+00
 Trust test= 9.60D-01 RLast= 1.00D+00 DXMaxT set to 8.49D-01
 ITU=  1  1  0
 Use linear search instead of GDIIS.
     Eigenvalues ---   -0.00255   0.00255   0.00255   0.01592   0.01596
     Eigenvalues ---    0.02753   0.02836   0.02912   0.02912   0.04567
     Eigenvalues ---    0.04567   0.04601   0.04956   0.04956   0.05008
     Eigenvalues ---    0.07316   0.09308   0.09312   0.09341   0.09345
     Eigenvalues ---    0.09348   0.09367   0.09973   0.09994   0.12921
     Eigenvalues ---    0.12925   0.12926   0.20367   0.20369   0.21984
     Eigenvalues ---    0.26231   0.26350   0.26365   0.26935   0.27117
     Eigenvalues ---    0.27122   0.29426   0.33717   0.33804   0.33866
     Eigenvalues ---    0.33897   0.33920   0.33961   0.34046   0.34080
     Eigenvalues ---    0.34104   0.34199   0.34216
 RFO step:  Lambda=-8.76018008D-03 EMin=-2.55136689D-03
 Skip linear search -- no minimum in search direction.
 Iteration  1 RMS(Cart)=  0.07076893 RMS(Int)=  0.00248394
 Iteration  2 RMS(Cart)=  0.00281710 RMS(Int)=  0.00091948
 Iteration  3 RMS(Cart)=  0.00000122 RMS(Int)=  0.00091947
 Iteration  4 RMS(Cart)=  0.00000000 RMS(Int)=  0.00091947
 Variable       Old X    -DE/DX   Delta X   Delta X   Delta X     New X
                                 (Linear)    (Quad)   (Total)
    R1        2.93240  -0.00081   0.00000  -0.00898  -0.00897   2.92344
    R2        2.93218  -0.00088   0.00000  -0.00959  -0.00961   2.92257
    R3        2.07293  -0.00016   0.00000   0.00041   0.00041   2.07334
    R4        2.07203  -0.00025   0.00000  -0.00023  -0.00023   2.07180
    R5        2.93271  -0.00081   0.00000  -0.00883  -0.00880   2.92391
    R6        2.07331  -0.00032   0.00000  -0.00026  -0.00026   2.07305
    R7        2.07135  -0.00003   0.00000   0.00067   0.00067   2.07202
    R8        2.93252  -0.00086   0.00000  -0.00928  -0.00926   2.92326
    R9        2.07120   0.00002   0.00000   0.00089   0.00089   2.07209
   R10        2.07352  -0.00039   0.00000  -0.00058  -0.00058   2.07294
   R11        2.93209  -0.00083   0.00000  -0.00928  -0.00929   2.92280
   R12        2.07292  -0.00016   0.00000   0.00041   0.00041   2.07333
   R13        2.07203  -0.00025   0.00000  -0.00023  -0.00023   2.07179
   R14        2.93206  -0.00086   0.00000  -0.00952  -0.00956   2.92251
   R15        2.07147  -0.00004   0.00000   0.00066   0.00066   2.07213
   R16        2.07348  -0.00035   0.00000  -0.00036  -0.00036   2.07312
   R17        2.07131   0.00001   0.00000   0.00089   0.00089   2.07220
   R18        2.07369  -0.00042   0.00000  -0.00068  -0.00068   2.07302
    A1        2.07372  -0.00012   0.00000  -0.01584  -0.01906   2.05466
    A2        1.90019   0.00006   0.00000   0.00663   0.00758   1.90777
    A3        1.87114   0.00002   0.00000   0.00134   0.00232   1.87345
    A4        1.90036   0.00001   0.00000   0.00596   0.00693   1.90729
    A5        1.87091   0.00003   0.00000   0.00129   0.00226   1.87318
    A6        1.83254   0.00002   0.00000   0.00240   0.00192   1.83446
    A7        2.07408  -0.00009   0.00000  -0.01545  -0.01862   2.05546
    A8        1.90018   0.00004   0.00000   0.00594   0.00687   1.90705
    A9        1.87099  -0.00001   0.00000   0.00136   0.00234   1.87333
   A10        1.90078  -0.00004   0.00000   0.00499   0.00593   1.90671
   A11        1.87029   0.00009   0.00000   0.00258   0.00354   1.87384
   A12        1.83244   0.00002   0.00000   0.00240   0.00193   1.83437
   A13        2.07410  -0.00011   0.00000  -0.01568  -0.01883   2.05527
   A14        1.87023   0.00010   0.00000   0.00261   0.00359   1.87382
   A15        1.90091  -0.00005   0.00000   0.00484   0.00577   1.90668
   A16        1.87090   0.00000   0.00000   0.00158   0.00255   1.87345
   A17        1.90019   0.00005   0.00000   0.00607   0.00700   1.90718
   A18        1.83243   0.00002   0.00000   0.00242   0.00195   1.83438
   A19        2.07375  -0.00012   0.00000  -0.01582  -0.01904   2.05470
   A20        1.90029   0.00003   0.00000   0.00631   0.00727   1.90756
   A21        1.87110   0.00002   0.00000   0.00126   0.00224   1.87334
   A22        1.90022   0.00003   0.00000   0.00627   0.00723   1.90745
   A23        1.87096   0.00003   0.00000   0.00136   0.00234   1.87330
[...]
 3,0.0231015,-0.0169507,0.1593041,-0.0188219,0.00659,0.001008,0.0065627
 ,0.0408807,0.0084416,-0.0047987,-0.0451645,-0.1887163,0.0316061,0.0225
 502,-0.0075085,0.0225367,-0.0095935,-0.0032392,0.0418078,0.0185132,-0.
 1886741,-0.1413493,0.0972091,0.0389987,0.0972018,-0.079557,-0.028572,0
 .0588045,-0.0430648,0.0294272,-0.0188231,0.0065805,0.000982,0.0065599,
 0.0408819,0.008444,-0.0048242,-0.0451623,-0.1887162,-0.1791745,-0.0752
 93,-0.044376,-0.0752852,-0.0416701,-0.019593,-0.066829,-0.029499,0.029
 357,-0.1413608,0.0972222,0.0389829,0.0972092,-0.0795589,-0.0285634,0.0
 587919,-0.0430568,0.0294289,0.0202894,-0.0291411,0.0068072,-0.0290941,
 0.00176,-0.0048191,-0.0366832,0.0270076,-0.1886935,0.0316126,0.0225535
 ,-0.0075189,0.0225432,-0.0095882,-0.0032575,0.0417906,0.0184913,-0.188
 6685,-0.0108512,-0.0219378,0.005187,-0.0219249,-0.2101597,0.0479167,0.
 0078341,0.0723066,0.0295231,-0.1791593,-0.0752827,-0.0443932,-0.075280
 6,-0.0416717,-0.0195978,-0.0668429,-0.029504,0.0293552,0.0202848,-0.02
 9138,0.0068005,-0.029088,0.0017528,-0.0047996,-0.0366959,0.0270322,-0.
 1886992,-0.0108517,-0.0219458,0.0051819,-0.0219215,-0.210159,0.0479177
 ,0.0078316,0.0723073,0.0295229\Polar=63.6613772,-0.0003928,63.6603576,
 0.0043026,0.0025678,56.4464084\Quadrupole=-0.1420785,-0.1421807,0.2842
 591,-0.0000345,-0.0001669,-0.0004845\PG=C01 [X(C6H12)]\NImag=0\\0.4432
 8138,0.01353676,0.56683331,-0.00375872,-0.03389117,0.57232289,-0.14065
 940,0.04265152,0.02454752,0.54744610,0.04219808,-0.11401293,-0.0184616
 6,0.04651827,0.46269830,0.02498336,-0.01780117,-0.09325519,0.03123204,
 0.01369561,0.57236300,0.00454371,0.02734697,-0.00866178,-0.08393161,-0
 .00928574,0.00370899,0.52421747,0.00499343,-0.02511778,0.00463392,-0.0
 0979424,-0.17082467,0.03046080,-0.06003744,0.48600377,-0.00242935,-0.0
 0953945,0.00487150,0.00291795,0.03054653,-0.09323852,-0.02757557,0.020
 03195,0.57236052,0.00059630,0.00023897,-0.00011258,-0.00362089,-0.0097
 2794,0.00031794,-0.15728009,-0.03263105,-0.02829007,0.44328090,0.00023
 900,0.00230870,-0.00114401,-0.03212430,-0.01691192,-0.00986891,-0.0330
 4433,-0.09738344,-0.01206467,0.01353257,0.56683404,-0.00011240,-0.0011
 4403,-0.00024297,0.00945683,0.00266804,0.00488637,-0.02801878,-0.01278
 015,-0.09335045,-0.00374005,-0.03389298,0.57232342,-0.00362255,-0.0321
 2544,0.00945843,0.00205211,0.00059719,0.00104949,-0.03184985,0.0159130
 4,0.00835796,-0.14065598,0.04265421,0.02455187,0.54745629,-0.00972956,
 -0.01691640,0.00266977,0.00059724,0.00082537,0.00047204,-0.00651936,0.
 01117174,0.00519110,0.04220085,-0.11401598,-0.01846825,0.04651936,0.46
 270688,0.00031798,-0.00986821,0.00488759,0.00104920,0.00047200,-0.0002
 3449,-0.00706479,0.00687743,0.00489412,0.02498516,-0.01780432,-0.09325
 892,0.03122885,0.01370571,0.57235167,-0.15727846,-0.03304783,-0.028024
 44,-0.03184973,-0.00652060,-0.00706759,0.00171063,-0.00081759,-0.00093
 088,0.00454191,0.02734761,-0.00866309,-0.08392855,-0.00928603,0.003711
 12,0.52422772,-0.03263437,-0.09738495,-0.01278565,0.01591156,0.0111720
 3,0.00687844,-0.00081764,0.00118107,0.00068364,0.00499474,-0.02512267,
 0.00463604,-0.00979436,-0.17082340,0.03046964,-0.06003977,0.48601247,-
 0.02829223,-0.01206742,-0.09335424,0.00835478,0.00519065,0.00489410,-0
 .00093059,0.00068355,-0.00024136,-0.00242920,-0.00953876,0.00487274,0.
 00291778,0.03055555,-0.09324574,-0.02757105,0.02004058,0.57234944,-0.0
 4781937,-0.00059652,-0.00114096,-0.00148105,0.00195023,0.02853741,0.00
 083130,-0.00134097,0.00012693,-0.00021062,-0.00000210,0.00001076,0.001
 23806,0.00131098,-0.00040968,-0.00195726,-0.00187872,-0.03207549,0.056
 58316,-0.00059949,-0.05323425,-0.01171549,0.00045932,-0.00166721,-0.01
 966267,-0.00052247,0.00109673,-0.00134465,0.00000003,-0.00021859,0.000
 11393,0.00049938,0.00068247,-0.00127832,-0.00036918,-0.00116094,-0.013
 08008,-0.00041482,0.05279841,-0.00118965,-0.01216356,-0.29642651,0.000
 88842,-0.00054261,-0.01110382,-0.00054214,0.00073338,0.00018410,-0.000
 02245,-0.00020164,0.00022498,0.00067822,0.00059698,0.00018325,-0.00096
 758,-0.00034270,-0.01113505,0.00149652,0.01513230,0.32467991,-0.002419
 92,0.00014997,0.02739586,-0.05241978,-0.00207830,0.01104310,-0.0005885
 0,0.00006100,0.00277321,0.00023192,0.00019246,0.00108597,-0.00021960,-
 0.00000243,-0.00010521,0.00162656,-0.00028418,0.00131207,-0.00387984,0
 .00311367,0.00193309,0.05345457,0.00167836,-0.00078034,-0.02123574,-0.
 00206269,-0.04866097,0.00498096,-0.00147447,-0.00258025,0.03453760,0.0
 0099264,0.00169649,0.00078301,-0.00000383,-0.00021001,-0.00004800,-0.0
 0108258,0.00030768,0.00027897,0.00398255,-0.00162288,-0.00124740,-0.00
 141434,0.05602631,0.00080944,-0.00067099,-0.01112068,0.01145227,0.0051
 5361,-0.29637214,0.00004122,0.00103998,-0.01108502,-0.00036755,-0.0008
 3607,0.00018753,0.00018956,0.00008156,0.00022540,-0.00086644,0.0002924
 2,0.00018600,0.00177452,-0.00146601,0.00085244,-0.01421901,-0.00637485
 ,0.32463065,0.00079138,-0.00091475,0.00004630,0.00397008,-0.00273278,-
 0.00207553,-0.19451694,0.10688163,0.06821217,-0.02238478,0.01672124,0.
 01119108,-0.00391512,-0.00450318,-0.00340874,0.00029669,-0.00067958,0.
 00017153,-0.00006212,-0.00000556,0.00006515,0.00015603,0.00035655,-0.0
 0037680,0.21244095,-0.00301644,-0.00563808,0.00357990,0.02510743,-0.01
 793935,-0.01240322,0.10687916,-0.12652517,-0.04988768,-0.01108879,0.00
 839849,0.00572538,-0.00240369,-0.00092934,-0.00112974,-0.00067977,-0.0
 0013441,-0.00012603,-0.00032023,0.00024458,-0.00005181,-0.00000510,0.0
 0142326,0.00037867,-0.11530635,0.13909243,0.00063297,0.00168296,-0.000
 34995,-0.00925773,0.00714819,0.00334029,0.06898923,-0.05045908,-0.0832
 8456,-0.00965306,0.00668396,0.00335772,-0.00141570,-0.00111773,-0.0003
 5821,0.00011036,-0.00008143,-0.00000686,-0.00025953,0.00031969,0.00039
 466,-0.00045305,-0.00053251,0.00065003,-0.07426678,0.05432472,0.085884
 07,-0.00021064,-0.00000214,0.00001084,0.00123814,0.00131095,-0.0004092
 7,-0.00195930,-0.00187726,-0.03207663,-0.04781988,-0.00059895,-0.00116
 725,-0.00147897,0.00195118,0.02853615,0.00083119,-0.00134098,0.0001272
 6,-0.00014602,0.00002618,0.00002325,0.00007285,-0.00039707,0.00076009,
 0.00120344,0.00068795,0.00037000,0.05658358,-0.00000017,-0.00021856,0.
 00011393,0.00049964,0.00068261,-0.00127777,-0.00036977,-0.00116017,-0.
 01307900,-0.00060203,-0.05323382,-0.01171317,0.00045815,-0.00166817,-0
 .01966360,-0.00052221,0.00109656,-0.00134527,0.00002622,0.00009483,0.0
 0021619,-0.00020143,-0.00011845,0.00038108,0.00032861,0.00037209,0.000
 59299,-0.00041409,0.05279831,-0.00002259,-0.00020162,0.00022498,0.0006
 7770,0.00059646,0.00018329,-0.00096844,-0.00034227,-0.01113156,-0.0012
 1415,-0.01216142,-0.29642687,0.00088750,-0.00054290,-0.01110726,-0.000
 54252,0.00073400,0.00018407,0.00002336,0.00021617,0.00002654,-0.000126
 11,-0.00084319,0.00063922,-0.00047401,0.00024463,0.00065095,0.00152401
 ,0.01512987,0.32468023,0.00131761,-0.00061481,0.00072468,0.00055971,0.
 00052816,-0.00019458,-0.00233034,0.00481227,0.00308407,-0.02215013,-0.
 01001886,-0.00972062,-0.23605225,-0.08277556,-0.07742397,-0.00173824,-
 0.00083508,-0.00063817,0.00002007,0.00005474,-0.00007499,-0.00003159,-
 0.00007583,0.00008786,-0.00159048,-0.00083757,-0.00042766,0.00095226,-
 0.00045615,0.00051618,0.25725615,0.00148412,-0.00616586,0.00350974,0.0
 0052523,-0.00039894,-0.00008598,0.00271426,-0.00251427,-0.00183290,0.0
 1779875,0.00816546,0.00800918,-0.08277681,-0.08486641,-0.03414479,-0.0
 2865778,-0.01224438,-0.01257957,0.00036997,0.00016252,-0.00003588,-0.0
 0007587,0.00010717,0.00003876,0.00131142,0.00056611,0.00016183,-0.0008
 1620,0.00062438,0.00013665,0.08930413,0.09414846,-0.00025680,0.0017791
 6,-0.00035127,-0.00012380,-0.00005609,-0.00000715,0.00114155,-0.001391
 44,-0.00035433,0.01083837,0.00444989,0.00335609,-0.07830642,-0.0345345
 6,-0.08339409,0.01057678,0.00499853,0.00335089,0.00032146,0.00025696,0
 .00039541,-0.00001064,-0.00000478,-0.00002658,0.00045041,0.00006545,0.
 00045715,-0.00023455,0.00065872,0.00065050,0.08430600,0.03717989,0.085
 99826,-0.02238630,0.01672132,0.01118820,-0.00391473,-0.00450306,-0.003
 40920,0.00029675,-0.00067963,0.00017149,0.00079158,-0.00091464,0.00004
 629,0.00396988,-0.00273293,-0.00207509,-0.19452917,0.10689000,0.068202
 22,0.00120336,0.00032856,-0.00047397,0.00031113,-0.00020202,0.00006854
 ,0.00008599,0.00014989,0.00003218,-0.00006209,-0.00000561,0.00006519,0
 .00060095,0.00051538,-0.00024992,0.21245492,-0.01109106,0.00839931,0.0
 0572451,-0.00240386,-0.00092948,-0.00113008,-0.00067981,-0.00013447,-0
 .00012599,-0.00301568,-0.00563852,0.00358089,0.02510814,-0.01794155,-0
 .01240117,0.10688711,-0.12652751,-0.04987949,0.00068798,0.00037213,0.0
 0024478,0.00011323,-0.00012842,-0.00004704,0.00014990,0.00018120,-0.00
 002326,-0.00032041,0.00024473,-0.00005163,-0.00043883,0.00094719,-0.00
 062665,-0.11531527,0.13909812,-0.00965438,0.00668445,0.00335698,-0.001
 41564,-0.00111797,-0.00035856,0.00011026,-0.00008139,-0.00000686,0.000
 63331,0.00168304,-0.00035076,-0.00925990,0.00715016,0.00334095,0.06898
 016,-0.05045172,-0.08327323,0.00036983,0.00059300,0.00065092,-0.000383
 63,0.00014931,0.00039519,0.00003215,-0.00002324,-0.00002379,-0.0002594
 1,0.00031964,0.00039490,0.00010994,-0.00066460,0.00008496,-0.07425479,
 0.05431554,0.08587118,-0.00266789,0.00027783,-0.03128130,0.00183160,-0
 .00003850,-0.00122150,-0.00021560,0.00000557,0.00009233,0.00005796,0.0
 0017641,-0.00089987,-0.00039350,-0.00054254,0.00471768,-0.05136042,0.0
 0264521,-0.00953207,-0.00525813,-0.00231332,-0.00216211,-0.00034385,0.
 00016011,0.00079125,0.00000673,0.00009816,0.00000944,0.00019133,0.0001
 2282,-0.00005105,0.00014023,0.00028610,0.00032728,0.00148047,-0.001434
 46,0.02547560,0.05412880,-0.00123898,-0.00046803,-0.01486291,0.0007591
 3,0.00007460,0.00055712,0.00000448,-0.00021334,-0.00006854,-0.00063469
 ,0.00188383,0.00099662,0.00096842,-0.00278455,0.03431617,0.00263453,-0
 .04970142,0.00722039,-0.00318262,-0.00024022,-0.00080666,-0.00003654,0
 .00028165,0.00031276,0.00009800,0.00006887,-0.00000684,0.00032570,-0.0
 0022723,-0.00085151,-0.00007387,0.00143694,-0.00061692,-0.00141165,0.0
 0060146,-0.01863137,0.00184948,0.05530495,-0.00092143,-0.00047292,-0.0
 1111988,0.00089684,0.00010820,0.00018310,-0.00016485,0.00012082,0.0002
 2545,0.00018717,-0.00089592,0.00018481,0.00019663,0.00102106,-0.011085
 54,-0.00986848,0.00746466,-0.29636242,-0.00205276,-0.00105261,0.000848
 31,-0.00071338,0.00047414,0.00063994,-0.00007742,0.00005680,-0.0000266
 4,-0.00066210,0.00053017,0.00064248,0.00044711,0.00028903,0.00065107,0
 .00009776,-0.00006113,-0.01170473,0.01228847,-0.00925432,0.32460336,0.
 00023184,0.00019222,0.00108619,-0.00021965,-0.00000235,-0.00010526,0.0
 0162663,-0.00028436,0.00131187,-0.00241612,0.00015038,0.02739294,-0.05
 242045,-0.00207551,0.01103004,-0.00058888,0.00006096,0.00277255,0.0000
 7293,-0.00020154,-0.00012605,0.00005831,0.00009152,-0.00019920,0.00031
 106,0.00011320,-0.00038360,-0.00387920,0.00311357,0.00193336,0.0020595
 6,0.00111565,-0.02886864,0.00015587,-0.00000525,-0.00045293,0.00088415
 ,-0.00036525,0.00038145,0.05345336,0.00099259,0.00169661,0.00078348,-0
 .00000383,-0.00020997,-0.00004798,-0.00108270,0.00030784,0.00027894,0.
 00167490,-0.00078084,-0.02123577,-0.00205996,-0.04866340,0.00496136,-0
 .00147274,-0.00257521,0.03453447,-0.00039692,-0.00011865,-0.00084323,0
 .00009154,-0.00010820,-0.00008800,-0.00020199,-0.00012843,0.00014936,0
 .00398243,-0.00162317,-0.00124765,0.00110648,0.00004492,-0.01273249,0.
 00035657,0.00142300,-0.00053255,-0.00123448,-0.00638876,0.00226437,-0.
 00141481,0.05602470,-0.00036792,-0.00083677,0.00018743,0.00018973,0.00
 008155,0.00022541,-0.00086647,0.00029243,0.00018594,0.00080789,-0.0006
 7114,-0.01112005,0.01143903,0.00513476,-0.29635870,0.00004074,0.001038
 17,-0.01108759,0.00075997,0.00038108,0.00063964,-0.00019924,-0.0000879
 6,0.00002606,0.00006856,-0.00004702,0.00039514,0.00177450,-0.00146606,
 0.00085214,-0.00009738,-0.00003927,-0.01172499,-0.00037678,0.00037869,
 0.00064977,0.00011345,0.00229410,0.00085460,-0.01420254,-0.00635273,0.
 32461778,-0.05099051,-0.02412408,0.00912208,0.00315627,0.02584939,-0.0
 1054055,-0.00467218,0.00196989,0.00267794,-0.00061600,0.00015289,0.000
 02267,-0.00572651,-0.00075006,-0.00313136,-0.00278585,-0.02898657,0.01
 175649,-0.00041633,0.00030009,0.00001944,0.00101913,-0.00079357,0.0000
 2526,0.00023236,0.00189061,-0.00028145,0.00013810,-0.00002209,-0.00001
 031,-0.00017811,-0.00212722,0.00035101,0.00089288,0.00060707,0.0006692
 6,0.00125484,0.00064068,-0.00013900,0.00002715,0.00037213,0.00001185,0
 .05760592,-0.02412539,-0.27012885,0.08386286,-0.00198765,-0.01712610,0
 .00681752,0.00407063,-0.00017385,-0.00238087,0.00015170,0.00077919,0.0
 0021173,-0.00285062,0.00088466,-0.00175395,-0.00116287,-0.01119273,0.0
 0439483,0.00031766,0.00247670,0.00012245,-0.00043348,0.00055518,-0.000
 53348,-0.00025972,-0.00125620,0.00035618,-0.00002230,-0.00006287,-0.00
 009555,0.00002270,-0.00084603,0.00028766,-0.00034645,0.00065425,0.0000
 9643,0.00027924,0.00032037,-0.00051513,0.00005731,0.00015564,0.0000821
 9,0.02602529,0.29402124,0.00922419,0.08481977,-0.08316543,-0.00096369,
 -0.01167378,0.00334018,0.00167336,-0.00066511,-0.00035259,0.00001356,0
 .00013642,-0.00000701,-0.00178215,-0.00029188,-0.00035768,-0.00156757,
 -0.01163906,0.00335086,0.00341332,0.03138635,-0.01168064,-0.00069852,0
 .00002293,0.00064962,0.00007323,-0.00044930,0.00045652,0.00000114,0.00
 001151,-0.00002670,-0.00016852,-0.00042517,0.00045711,0.00052173,0.000
 42915,0.00008585,0.00068869,-0.00012583,0.00064972,-0.00014767,-0.0003
 8424,0.00039468,-0.00993109,-0.09131381,0.08574933,-0.02214913,-0.0100
 1914,-0.00972323,-0.23603765,-0.08277004,-0.07743555,-0.00173784,-0.00
 083483,-0.00063820,0.00131762,-0.00061462,0.00072446,0.00055962,0.0005
 2813,-0.00019463,-0.00233073,0.00481248,0.00308372,0.00095234,-0.00045
 622,0.00051618,0.00206112,0.00110726,-0.00009646,0.00060055,-0.0004389
 6,0.00010996,0.00001999,0.00005467,-0.00007499,0.00002761,-0.00011616,
 -0.00003634,-0.00159050,-0.00083765,-0.00042773,0.00030826,0.00010577,
 -0.00007735,-0.00003157,-0.00007584,0.00008788,0.00082858,0.00030849,-
 0.00041612,0.25723942,0.01779608,0.00816518,0.00801064,-0.08277169,-0.
 08486684,-0.03415059,-0.02865676,-0.01224245,-0.01258163,0.00148498,-0
 .00616563,0.00350878,0.00052522,-0.00039887,-0.00008601,0.00271422,-0.
 00251415,-0.00183248,-0.00081620,0.00062435,0.00013650,0.00111788,0.00
 004586,-0.00003843,0.00051553,0.00094691,-0.00066441,0.00036977,0.0001
 6242,-0.00003607,-0.00011615,0.00023963,-0.00001594,0.00131134,0.00056
 613,0.00016184,-0.00020917,-0.00012664,-0.00003118,-0.00007589,0.00010
 720,0.00003878,-0.00064582,0.00071952,0.00053014,0.08929779,0.09414600
 ,0.01083705,0.00444973,0.00335686,-0.07831697,-0.03453975,-0.08340542,
 0.01057420,0.00499708,0.00335020,-0.00025649,0.00177901,-0.00035046,-0
 .00012390,-0.00005611,-0.00000714,0.00114166,-0.00139122,-0.00035400,-
 0.00023474,0.00065875,0.00065053,-0.02886820,-0.01273222,-0.01172736,-
 0.00024990,-0.00062646,0.00008483,0.00032159,0.00025698,0.00039517,-0.
 00003637,-0.00001595,-0.00002382,0.00045035,0.00006545,0.00045715,0.00
 040649,0.00006398,0.00039527,-0.00001065,-0.00000480,-0.00002660,-0.00
 063225,0.00023867,0.00008541,0.08431978,0.03718616,0.08601114,0.000057
 95,0.00017615,-0.00089976,-0.00039297,-0.00054384,0.00471776,-0.051358
 51,0.00264810,-0.00954111,-0.00267237,0.00027926,-0.03128420,0.0018314
 1,-0.00003870,-0.00122168,-0.00021554,0.00000563,0.00009227,0.00019142
 ,0.00012272,-0.00005098,0.00088432,-0.00123461,0.00011344,0.00148141,-
 0.00143663,0.02547522,-0.00525879,-0.00231322,-0.00216179,0.00030832,-
 0.00020921,0.00040651,0.00000671,0.00009814,0.00000943,0.00001201,-0.0
 0011764,0.00017560,-0.00034383,0.00016024,0.00079129,-0.00005693,-0.00
 001083,0.00006168,0.00014036,0.00028597,0.00032742,0.05412993,-0.00063
 477,0.00188376,0.00099614,0.00096896,-0.00278971,0.03431941,0.00263737
 ,-0.04970012,0.00724170,-0.00124140,-0.00046715,-0.01486230,0.00075903
 ,0.00007450,0.00055719,0.00000446,-0.00021339,-0.00006855,0.00032578,-
 0.00022712,-0.00085152,-0.00036533,-0.00638962,0.00229380,-0.00141244,
 0.00060302,-0.01863104,-0.00318254,-0.00023993,-0.00080647,0.00010579,
 -0.00012663,0.00006393,0.00009799,0.00006884,-0.00000682,-0.00011762,-
 0.00006241,-0.00012872,-0.00003641,0.00028161,0.00031264,-0.00032487,0
 .00023977,-0.00040761,-0.00007382,0.00143723,-0.00061690,0.00184924,0.
 05530689,0.00018697,-0.00089517,0.00018493,0.00019658,0.00102295,-0.01
 108324,-0.00987790,0.00748539,-0.29637599,-0.00092298,-0.00047248,-0.0
 1112042,0.00089674,0.00010818,0.00018315,-0.00016467,0.00012079,0.0002
 2543,-0.00066209,0.00053008,0.00064204,0.00038140,0.00226409,0.0008552
 2,0.00009703,-0.00006013,-0.01170711,-0.00205276,-0.00105255,0.0008486
 4,-0.00007733,-0.00003119,0.00039532,-0.00007740,0.00005678,-0.0000266
 3,0.00017556,-0.00012875,0.00002645,-0.00071332,0.00047428,0.00063994,
 0.00000559,0.00008274,0.00039446,0.00044714,0.00028901,0.00065133,0.01
 230029,-0.00927880,0.32461654,-0.00061598,0.00015302,0.00002268,-0.005
 72656,-0.00074911,-0.00313104,-0.00278571,-0.02898757,0.01175590,-0.05
 099134,-0.02412823,0.00912338,0.00315597,0.02584810,-0.01054102,-0.004
 67185,0.00197064,0.00267814,0.00013810,-0.00002211,-0.00001034,0.00002
 716,0.00037202,0.00001200,0.00089277,0.00060713,0.00066923,-0.00041599
 ,0.00030308,0.00001866,0.00082868,-0.00064574,-0.00063227,0.00023230,0
 .00189069,-0.00028153,-0.00005696,-0.00032494,0.00000572,0.00101885,-0
 .00079362,0.00002543,0.00028720,-0.00003373,0.00000444,-0.00017804,-0.
 00212710,0.00035092,0.00125511,0.00064058,-0.00013886,0.05760630,0.000
 15180,0.00077916,0.00021173,-0.00285006,0.00088517,-0.00175354,-0.0011
 6239,-0.01119117,0.00439393,-0.02412856,-0.27012765,0.08386306,-0.0019
 8745,-0.01712754,0.00681860,0.00407102,-0.00017464,-0.00238133,-0.0000
 2228,-0.00006287,-0.00009555,0.00005726,0.00015553,0.00008224,-0.00034
 654,0.00065402,0.00009642,0.00031778,0.00247642,0.00012251,0.00030843,
 0.00071975,0.00023868,-0.00025979,-0.00125641,0.00035626,-0.00001084,0
 .00023991,0.00008266,-0.00043344,0.00055510,-0.00053343,-0.00003375,-0
 .00001990,0.00003952,0.00002267,-0.00084584,0.00028760,0.00027923,0.00
 032046,-0.00051521,0.02602691,0.29402048,0.00001351,0.00013642,-0.0000
 0701,-0.00178203,-0.00029191,-0.00035721,-0.00156749,-0.01163730,0.003
 34942,0.00922516,0.08482001,-0.08316575,-0.00096398,-0.01167545,0.0033
 4163,0.00167348,-0.00066512,-0.00035304,0.00000117,0.00001151,-0.00002
 670,-0.00014771,-0.00038434,0.00039449,0.00052158,0.00042908,0.0000857
 8,0.00341314,0.03138635,-0.01168070,-0.00041624,0.00053024,0.00008547,
 0.00007321,-0.00044935,0.00045670,0.00006166,-0.00040750,0.00039464,-0
 .00069854,0.00002319,0.00064941,0.00000443,0.00003953,-0.00002367,-0.0
 0016852,-0.00042511,0.00045692,0.00068861,-0.00012608,0.00064994,-0.00
 993144,-0.09131416,0.08574968\\-0.00001169,-0.00000954,-0.00000760,-0.
 00004097,-0.00000001,0.00000098,0.00000102,0.00002304,-0.00001131,0.00
 001115,0.00000969,0.00000764,0.00004562,0.00000126,0.00001373,0.000003
 17,-0.00002534,-0.00000347,-0.00000268,-0.00000673,0.00000950,-0.00000
 634,0.00000752,-0.00001447,0.00000743,-0.00001090,-0.00000631,0.000002
 18,0.00000680,-0.00000938,-0.00001824,-0.00000070,-0.00000906,-0.00000
 563,0.00000651,0.00000779,-0.00000260,0.00001348,-0.00003294,0.0000024
 1,-0.00000950,0.00002163,0.00000419,0.00002844,-0.00001092,0.00002081,
 0.00000447,0.00000758,-0.00000080,-0.00001055,0.00002570,-0.00000902,-
 0.00002792,0.00001093\\\@


 GOOD SENSE ABOUT TRIVIALITIES IS BETTER THAN NONSENSE
 ABOUT THINGS THAT MATTER

                                       -- MAX BEERBOHM
 Job cpu time:       0 days  0 hours  6 minutes 32.2 seconds.
 Elapsed time:       0 days  0 hours  1 minutes 38.3 seconds.
 File lengths (MBytes):  RWF=     31 Int=      0 D2E=      0 Chk=      2 Scr=      1
 Normal termination of Gaussian 16 at Wed May 19 15:31:03 2021.
