 Entering Gaussian System, Link 0=/Applications/Gaussian/g16/g16
 Input=planar_chex.com
 Output=planar_chex.log
 Initial command:
 /Applications/Gaussian/g16/l1.exe "/var/folders/2d/352180cn2v1_bxhw2xpm1ypm0000gn/T/Gau-75164.inp" -scrdir="/var/folders/2d/352180cn2v1_bxhw2xpm1ypm0000gn/T/"
 Entering Link 1 = /Applications/Gaussian/g16/l1.exe PID=     75165.
  
 Copyright (c) 1988-2017, Gaussian, Inc.  All Rights Reserved.
  
 This is part of the Gaussian(R) 16 program.  It is based on
 the Gaussian(R) 09 system (copyright 2009, Gaussian, Inc.),
 the Gaussian(R) 03 system (copyright 2003, Gaussian, Inc.),
 the Gaussian(R) 98 system (copyright 1998, Gaussian, Inc.),
 the Gaussian(R) 94 system (copyright 1995, Gaussian, Inc.),
 the Gaussian 92(TM) system (copyright 1992, Gaussian, Inc.),
 the Gaussian 90(TM) system (copyright 1990, Gaussian, Inc.),
 the Gaussian 88(TM) system (copyright 1988, Gaussian, Inc.),
 the Gaussian 86(TM) system (copyright 1986, Carnegie Mellon
 University), and the Gaussian 82(TM) system (copyright 1983,
 Carnegie Mellon University). Gaussian is a federally registered
 trademark of Gaussian, Inc.
  
 This software contains proprietary and confidential information,
 including trade secrets, belonging to Gaussian, Inc.
  
 This software is provided under written license and may be
 used, copied, transmitted, or stored only in accord with that
 written license.
  
 The following legend is applicable only to US Government
 contracts under FAR:
  
                    RESTRICTED RIGHTS LEGEND
  
 Use, reproduction and disclosure by the US Government is
 subject to restrictions as set forth in subparagraphs (a)
 and (c) of the Commercial Computer Software - Restricted
 Rights clause in FAR 52.227-19.
  
 Gaussian, Inc.
 340 Quinnipiac St., Bldg. 40, Wallingford CT 06492
  
  
 ---------------------------------------------------------------
 Warning -- This program may not be used in any manner that
 competes with the business of Gaussian, Inc. or will provide
 assistance to any competitor of Gaussian, Inc.  The licensee
 of this program is prohibited from giving any competitor of
 Gaussian, Inc. access to this program.  By using this program,
 the user acknowledges that Gaussian, Inc. is engaged in the
 business of creating and licensing software in the field of
 computational chemistry and represents and warrants to the
 licensee that it is not a competitor of Gaussian, Inc. and that
 it will not use this program in any manner prohibited above.
 ---------------------------------------------------------------
  

 Cite this work as:
 Gaussian 16, Revision B.01,
 M. J. Frisch, G. W. Trucks, H. B. Schlegel, G. E. Scuseria, 
 M. A. Robb, J. R. Cheeseman, G. Scalmani, V. Barone, 
 G. A. Petersson, H. Nakatsuji, X. Li, M. Caricato, A. V. Marenich, 
 J. Bloino, B. G. Janesko, R. Gomperts, B. Mennucci, H. P. Hratchian, 
 J. V. Ortiz, A. F. Izmaylov, J. L. Sonnenberg, D. Williams-Young, 
 F. Ding, F. Lipparini, F. Egidi, J. Goings, B. Peng, A. Petrone, 
 T. Henderson, D. Ranasinghe, V. G. Zakrzewski, J. Gao, N. Rega, 
 G. Zheng, W. Liang, M. Hada, M. Ehara, K. Toyota, R. Fukuda, 
 J. Hasegawa, M. Ishida, T. Nakajima, Y. Honda, O. Kitao, H. Nakai, 
 T. Vreven, K. Throssell, J. A. Montgomery, Jr., J. E. Peralta, 
 F. Ogliaro, M. J. Bearpark, J. J. Heyd, E. N. Brothers, K. N. Kudin, 
 V. N. Staroverov, T. A. Keith, R. Kobayashi, J. Normand, 
 K. Raghavachari, A. P. Rendell, J. C. Burant, S. S. Iyengar, 
 J. Tomasi, M. Cossi, J. M. Millam, M. Klene, C. Adamo, R. Cammi, 
 J. W. Ochterski, R. L. Martin, K. Morokuma, O. Farkas, 
 J. B. Foresman, and D. J. Fox, Gaussian, Inc., Wallingford CT, 2016.
 
 ******************************************
 Gaussian 16:  EM64M-G16RevB.01 20-Dec-2017
                19-May-2021 
 ******************************************
 %nproc=4
 Will use up to    4 processors via shared memory.
 %chk=planar_chex.chk
 ----------------------------------
 # symm=loose opt b3lyp/6-31G* freq
 ----------------------------------
 1/18=20,19=15,26=3,38=1/1,3;
 2/9=110,12=2,17=4,18=3,40=1/2;
 3/5=1,6=6,7=1,11=2,25=1,30=1,71=1,74=-5/1,2,3;
 4//1;
 5/5=2,38=5/2;
 6/7=2,8=2,9=2,10=2,28=1/1;
 7//1,2,3,16;
 1/18=20,19=15,26=3/3(2);
 2/9=110/2;
 99//99;
 2/9=110/2;
 3/5=1,6=6,7=1,11=2,25=1,30=1,71=1,74=-5/1,2,3;
 4/5=5,16=3,69=1/1;
 5/5=2,38=5/2;
 7//1,2,3,16;
 1/18=20,19=15,26=3/3(-5);
 2/9=110/2;
 6/7=2,8=2,9=2,10=2,19=2,28=1/1;
 99/9=1/99;
 -------------------
 Title Card Required
 -------------------
 Symbolic Z-matrix:
 Charge =  0 Multiplicity = 1
 C                    -2.68575   0.01827   0. 
 C                    -1.29059   0.01827   0. 
 C                    -0.59305   1.22602   0. 
 C                    -1.29071   2.43453  -0.0012 
 C                    -2.68553   2.43445  -0.00168 
 C                    -3.38313   1.22625  -0.00068 
 H                    -3.00194  -0.52987  -0.86283 
 H                    -0.97444  -0.52942   0.86313 
 H                     0.03858   1.22639   0.86368 
 H                    -0.97482   2.98286   0.86161 
 H                    -3.00203   2.98299   0.86078 
 H                    -4.0157    1.22566  -0.86367 
 H                    -4.01531   1.22686   0.86259 
 H                    -3.00143   2.98122  -0.86548 
 H                    -3.00194  -0.52889   0.86344 
 H                    -0.97444  -0.52942  -0.86313 
 H                     0.04006   1.22553  -0.8626 
 H                    -0.97423   2.98149  -0.86466 
 

 GradGradGradGradGradGradGradGradGradGradGradGradGradGradGradGradGradGrad
 Berny optimization.
 Initialization pass.
                           ----------------------------
                           !    Initial Parameters    !
                           ! (Angstroms and Degrees)  !
 --------------------------                            --------------------------
 ! Name  Definition              Value          Derivative Info.                !
 --------------------------------------------------------------------------------
 ! R1    R(1,2)                  1.3952         estimate D2E/DX2                !
 ! R2    R(1,6)                  1.3948         estimate D2E/DX2                !
 ! R3    R(1,7)                  1.07           estimate D2E/DX2                !
 ! R4    R(1,15)                 1.07           estimate D2E/DX2                !
 ! R5    R(2,3)                  1.3947         estimate D2E/DX2                !
 ! R6    R(2,8)                  1.07           estimate D2E/DX2                !
 ! R7    R(2,16)                 1.07           estimate D2E/DX2                !
 ! R8    R(3,4)                  1.3954         estimate D2E/DX2                !
 ! R9    R(3,9)                  1.07           estimate D2E/DX2                !
 ! R10   R(3,17)                 1.07           estimate D2E/DX2                !
 ! R11   R(4,5)                  1.3948         estimate D2E/DX2                !
 ! R12   R(4,10)                 1.07           estimate D2E/DX2                !
 ! R13   R(4,18)                 1.07           estimate D2E/DX2                !
 ! R14   R(5,6)                  1.3951         estimate D2E/DX2                !
 ! R15   R(5,11)                 1.07           estimate D2E/DX2                !
 ! R16   R(5,14)                 1.07           estimate D2E/DX2                !
 ! R17   R(6,12)                 1.07           estimate D2E/DX2                !
 ! R18   R(6,13)                 1.07           estimate D2E/DX2                !
 ! A1    A(2,1,6)              119.9985         estimate D2E/DX2                !
 ! A2    A(2,1,7)              107.1881         estimate D2E/DX2                !
 ! A3    A(2,1,15)             107.1881         estimate D2E/DX2                !
 ! A4    A(6,1,7)              107.1881         estimate D2E/DX2                !
 ! A5    A(6,1,15)             107.1881         estimate D2E/DX2                !
 ! A6    A(7,1,15)             107.5433         estimate D2E/DX2                !
 ! A7    A(1,2,3)              120.0086         estimate D2E/DX2                !
 ! A8    A(1,2,8)              107.1857         estimate D2E/DX2                !
 ! A9    A(1,2,16)             107.1857         estimate D2E/DX2                !
 ! A10   A(3,2,8)              107.1857         estimate D2E/DX2                !
 ! A11   A(3,2,16)             107.1857         estimate D2E/DX2                !
 ! A12   A(8,2,16)             107.5417         estimate D2E/DX2                !
 ! A13   A(2,3,4)              119.9942         estimate D2E/DX2                !
 ! A14   A(2,3,9)              107.1891         estimate D2E/DX2                !
 ! A15   A(2,3,17)             107.1891         estimate D2E/DX2                !
 ! A16   A(4,3,9)              107.1891         estimate D2E/DX2                !
 ! A17   A(4,3,17)             107.1891         estimate D2E/DX2                !
 ! A18   A(9,3,17)             107.544          estimate D2E/DX2                !
 ! A19   A(3,4,5)              119.994          estimate D2E/DX2                !
 ! A20   A(3,4,10)             107.1891         estimate D2E/DX2                !
 ! A21   A(3,4,18)             107.1891         estimate D2E/DX2                !
 ! A22   A(5,4,10)             107.1891         estimate D2E/DX2                !
 ! A23   A(5,4,18)             107.1891         estimate D2E/DX2                !
 ! A24   A(10,4,18)            107.5441         estimate D2E/DX2                !
 ! A25   A(4,5,6)              120.0047         estimate D2E/DX2                !
 ! A26   A(4,5,11)             107.1866         estimate D2E/DX2                !
 ! A27   A(4,5,14)             107.1866         estimate D2E/DX2                !
 ! A28   A(6,5,11)             107.1866         estimate D2E/DX2                !
 ! A29   A(6,5,14)             107.1866         estimate D2E/DX2                !
 ! A30   A(11,5,14)            107.5423         estimate D2E/DX2                !
 ! A31   A(1,6,5)              120.0            estimate D2E/DX2                !
 ! A32   A(1,6,12)             107.1877         estimate D2E/DX2                !
 ! A33   A(1,6,13)             107.1877         estimate D2E/DX2                !
 ! A34   A(5,6,12)             107.1877         estimate D2E/DX2                !
 ! A35   A(5,6,13)             107.1877         estimate D2E/DX2                !
 ! A36   A(12,6,13)            107.5431         estimate D2E/DX2                !
 ! D1    D(6,1,2,3)              0.0323         estimate D2E/DX2                !
 ! D2    D(6,1,2,8)            122.4291         estimate D2E/DX2                !
 ! D3    D(6,1,2,16)          -122.3644         estimate D2E/DX2                !
 ! D4    D(7,1,2,3)            122.427          estimate D2E/DX2                !
 ! D5    D(7,1,2,8)           -115.1763         estimate D2E/DX2                !
 ! D6    D(7,1,2,16)             0.0302         estimate D2E/DX2                !
 ! D7    D(15,1,2,3)          -122.3623         estimate D2E/DX2                !
 ! D8    D(15,1,2,8)             0.0345         estimate D2E/DX2                !
 ! D9    D(15,1,2,16)          115.241          estimate D2E/DX2                !
 ! D10   D(2,1,6,5)              0.0149         estimate D2E/DX2                !
 ! D11   D(2,1,6,12)           122.4098         estimate D2E/DX2                !
 ! D12   D(2,1,6,13)          -122.3801         estimate D2E/DX2                !
 ! D13   D(7,1,6,5)           -122.3797         estimate D2E/DX2                !
 ! D14   D(7,1,6,12)             0.0152         estimate D2E/DX2                !
 ! D15   D(7,1,6,13)           115.2253         estimate D2E/DX2                !
 ! D16   D(15,1,6,5)           122.4095         estimate D2E/DX2                !
 ! D17   D(15,1,6,12)         -115.1955         estimate D2E/DX2                !
 ! D18   D(15,1,6,13)            0.0146         estimate D2E/DX2                !
 ! D19   D(1,2,3,4)             -0.0568         estimate D2E/DX2                !
 ! D20   D(1,2,3,9)            122.3369         estimate D2E/DX2                !
 ! D21   D(1,2,3,17)          -122.4506         estimate D2E/DX2                !
 ! D22   D(8,2,3,4)           -122.4536         estimate D2E/DX2                !
 ! D23   D(8,2,3,9)             -0.0599         estimate D2E/DX2                !
 ! D24   D(8,2,3,17)           115.1527         estimate D2E/DX2                !
 ! D25   D(16,2,3,4)           122.3399         estimate D2E/DX2                !
 ! D26   D(16,2,3,9)          -115.2664         estimate D2E/DX2                !
 ! D27   D(16,2,3,17)           -0.0538         estimate D2E/DX2                !
 ! D28   D(2,3,4,5)              0.0341         estimate D2E/DX2                !
 ! D29   D(2,3,4,10)           122.4278         estimate D2E/DX2                !
 ! D30   D(2,3,4,18)          -122.3596         estimate D2E/DX2                !
 ! D31   D(9,3,4,5)           -122.3596         estimate D2E/DX2                !
 ! D32   D(9,3,4,10)             0.0341         estimate D2E/DX2                !
 ! D33   D(9,3,4,18)           115.2467         estimate D2E/DX2                !
 ! D34   D(17,3,4,5)           122.4278         estimate D2E/DX2                !
 ! D35   D(17,3,4,10)         -115.1785         estimate D2E/DX2                !
 ! D36   D(17,3,4,18)            0.0342         estimate D2E/DX2                !
 ! D37   D(3,4,5,6)              0.0131         estimate D2E/DX2                !
 ! D38   D(3,4,5,11)           122.409          estimate D2E/DX2                !
 ! D39   D(3,4,5,14)          -122.3828         estimate D2E/DX2                !
 ! D40   D(10,4,5,6)          -122.3806         estimate D2E/DX2                !
 ! D41   D(10,4,5,11)            0.0153         estimate D2E/DX2                !
 ! D42   D(10,4,5,14)          115.2235         estimate D2E/DX2                !
 ! D43   D(18,4,5,6)           122.4068         estimate D2E/DX2                !
 ! D44   D(18,4,5,11)         -115.1973         estimate D2E/DX2                !
 ! D45   D(18,4,5,14)            0.0109         estimate D2E/DX2                !
 ! D46   D(4,5,6,1)             -0.0376         estimate D2E/DX2                !
 ! D47   D(4,5,6,12)          -122.4326         estimate D2E/DX2                !
 ! D48   D(4,5,6,13)           122.3573         estimate D2E/DX2                !
 ! D49   D(11,5,6,1)          -122.4335         estimate D2E/DX2                !
 ! D50   D(11,5,6,12)          115.1715         estimate D2E/DX2                !
 ! D51   D(11,5,6,13)           -0.0386         estimate D2E/DX2                !
 ! D52   D(14,5,6,1)           122.3583         estimate D2E/DX2                !
 ! D53   D(14,5,6,12)           -0.0366         estimate D2E/DX2                !
 ! D54   D(14,5,6,13)         -115.2467         estimate D2E/DX2                !
 --------------------------------------------------------------------------------
 Trust Radius=3.00D-01 FncErr=1.00D-07 GrdErr=1.00D-06 EigMax=2.50D+02 EigMin=1.00D-04
 Number of steps in this run=    108 maximum allowed number of steps=    108.
 GradGradGradGradGradGradGradGradGradGradGradGradGradGradGradGradGradGrad

                          Input orientation:                          
 ---------------------------------------------------------------------
 Center     Atomic      Atomic             Coordinates (Angstroms)
 Number     Number       Type             X           Y           Z
 ---------------------------------------------------------------------
      1          6           0       -2.685749    0.018270    0.000000
      2          6           0       -1.290589    0.018270    0.000000
      3          6           0       -0.593051    1.226021    0.000000
      4          6           0       -1.290705    2.434530   -0.001199
      5          6           0       -2.685530    2.434452   -0.001678
      6          6           0       -3.383131    1.226246   -0.000682
      7          1           0       -3.001944   -0.529865   -0.862826
      8          1           0       -0.974437   -0.529417    0.863126
      9          1           0        0.038577    1.226387    0.863682
     10          1           0       -0.974819    2.982865    0.861613
     11          1           0       -3.002026    2.982990    0.860782
     12          1           0       -4.015702    1.225664   -0.863673
     13          1           0       -4.015314    1.226863    0.862594
     14          1           0       -3.001433    2.981224   -0.865475
     15          1           0       -3.001944   -0.528891    0.863444
     16          1           0       -0.974437   -0.529417   -0.863126
     17          1           0        0.040060    1.225530   -0.862595
     18          1           0       -0.974226    2.981494   -0.864664
 ---------------------------------------------------------------------
                    Distance matrix (angstroms):
                    1          2          3          4          5
     1  C    0.000000
     2  C    1.395160   0.000000
     3  C    2.416205   1.394712   0.000000
     4  C    2.790065   2.416260   1.395427   0.000000
     5  C    2.416183   2.789946   2.416356   1.394825   0.000000
     6  C    1.394829   2.416183   2.790080   2.416236   1.395138
     7  H    1.070000   1.993403   3.103284   3.529643   3.103042
     8  H    1.993374   1.070000   1.992989   3.103557   3.529908
     9  H    3.102812   1.993031   1.070000   1.993645   3.103068
    10  H    3.529657   3.103370   1.993645   1.070000   1.993129
    11  H    3.103311   3.529805   3.103392   1.993097   1.070000
    12  H    1.993115   3.103220   3.529939   3.103358   1.993380
    13  H    1.993115   3.103045   3.529299   3.102917   1.993380
    14  H    3.102869   3.529183   3.103238   1.993097   1.070000
    15  H    1.070000   1.993403   3.102905   3.529562   3.103217
    16  H    1.993374   1.070000   1.992989   3.102890   3.529087
    17  H    3.103479   1.993031   1.070000   1.993645   3.103468
    18  H    3.529540   3.102970   1.993645   1.070000   1.993129
                    6          7          8          9         10
     6  C    0.000000
     7  H    1.993119   0.000000
     8  H    3.103277   2.662648   0.000000
     9  H    3.529194   3.912801   2.027078   0.000000
    10  H    3.103100   4.407062   3.512282   2.027853   0.000000
    11  H    1.993366   3.912924   4.055629   3.511542   2.027207
    12  H    1.070000   2.027212   3.912983   4.406919   3.912971
    13  H    1.070000   2.662721   3.511617   4.053891   3.511147
    14  H    1.993366   3.511091   4.406969   3.912940   2.662706
    15  H    1.993119   1.726270   2.027507   3.510807   4.054832
    16  H    3.102897   2.027507   1.726252   2.662876   3.912908
    17  H    3.530033   3.512150   2.662171   1.726278   2.662911
    18  H    3.103254   4.054786   3.913024   2.663334   1.726278
                   11         12         13         14         15
    11  H    0.000000
    12  H    2.662607   0.000000
    13  H    2.027495   1.726267   0.000000
    14  H    1.726259   2.027495   2.663074   0.000000
    15  H    3.511881   2.662537   2.027212   3.912808   0.000000
    16  H    4.406810   3.511354   3.912743   4.053803   2.663049
    17  H    3.913180   4.055762   4.407078   3.511858   3.912926
    18  H    2.662544   3.511911   3.912846   2.027207   4.406904
                   16         17         18
    16  H    0.000000
    17  H    2.027077   0.000000
    18  H    3.510912   2.027853   0.000000
 This structure is nearly, but not quite of a higher symmetry.
 Consider Symm=Loose if the higher symmetry is desired.
 Stoichiometry    C6H12
 Framework group  C1[X(C6H12)]
 Deg. of freedom    48
 Full point group                 C1      NOp   1
 Largest Abelian subgroup         C1      NOp   1
 Largest concise Abelian subgroup C1      NOp   1
                         Standard orientation:                         
 ---------------------------------------------------------------------
 Center     Atomic      Atomic             Coordinates (Angstroms)
 Number     Number       Type             X           Y           Z
 ---------------------------------------------------------------------
      1          6           0       -0.137358   -1.388212    0.000538
      2          6           0       -1.270959   -0.574934    0.001152
      3          6           0       -1.133694    0.813007    0.000021
      4          6           0        0.137640    1.388268   -0.000526
      5          6           0        1.270924    0.575122   -0.000661
      6          6           0        1.133444   -0.813226   -0.000525
      7          1           0       -0.199058   -2.017290    0.863877
      8          1           0       -1.848010   -0.836262   -0.861181
      9          1           0       -1.647602    1.180883   -0.863382
     10          1           0        0.199706    2.017328   -0.863851
     11          1           0        1.846934    0.835714   -0.863913
     12          1           0        1.647991   -1.181829    0.862187
     13          1           0        1.646559   -1.181855   -0.864079
     14          1           0        1.847239    0.835853    0.862346
     15          1           0       -0.200305   -2.017725   -0.862393
     16          1           0       -1.846194   -0.835035    0.865069
     17          1           0       -1.647491    1.182279    0.862895
     18          1           0        0.200242    2.017787    0.862426
 ---------------------------------------------------------------------
 Rotational constants (GHZ):           4.8631208           4.8628824           2.6623189
 Standard basis: 6-31G(d) (6D, 7F)
 There are   114 symmetry adapted cartesian basis functions of A   symmetry.
 There are   114 symmetry adapted basis functions of A   symmetry.
   114 basis functions,   216 primitive gaussians,   114 cartesian basis functions
    24 alpha electrons       24 beta electrons
       nuclear repulsion energy       271.2054306661 Hartrees.
 NAtoms=   18 NActive=   18 NUniq=   18 SFac= 1.00D+00 NAtFMM=   60 NAOKFM=F Big=F
 Integral buffers will be    131072 words long.
 Raffenetti 2 integral format.
 Two-electron integral symmetry is turned on.
 One-electron integrals computed using PRISM.
 NBasis=   114 RedAO= T EigKep=  9.72D-04  NBF=   114
 NBsUse=   114 1.00D-06 EigRej= -1.00D+00 NBFU=   114
 ExpMin= 1.61D-01 ExpMax= 3.05D+03 ExpMxC= 4.57D+02 IAcc=3 IRadAn=         5 AccDes= 0.00D+00
 Harris functional with IExCor=  402 and IRadAn=       5 diagonalized for initial guess.
 HarFok:  IExCor=  402 AccDes= 0.00D+00 IRadAn=         5 IDoV= 1 UseB2=F ITyADJ=14
 ICtDFT=  3500011 ScaDFX=  1.000000  1.000000  1.000000  1.000000
 FoFCou: FMM=F IPFlag=           0 FMFlag=      100000 FMFlg1=           0
         NFxFlg=           0 DoJE=T BraDBF=F KetDBF=T FulRan=T
         wScrn=  0.000000 ICntrl=       500 IOpCl=  0 I1Cent=   200000004 NGrid=           0
         NMat0=    1 NMatS0=      1 NMatT0=    0 NMatD0=    1 NMtDS0=    0 NMtDT0=    0
 Petite list used in FoFCou.
 Keep R1 ints in memory in canonical form, NReq=25245998.
 Requested convergence on RMS density matrix=1.00D-08 within 128 cycles.
 Requested convergence on MAX density matrix=1.00D-06.
 Requested convergence on             energy=1.00D-06.
 No special actions if energy rises.
 Integral accuracy reduced to 1.0D-05 until final iterations.
 Initial convergence to 1.0D-05 achieved.  Increase integral accuracy.
 SCF Done:  E(RB3LYP) =  -235.721447673     A.U. after    9 cycles
            NFock=  9  Conv=0.98D-08     -V/T= 1.9995

 **********************************************************************

            Population analysis using the SCF Density.

 **********************************************************************

 Orbital symmetries:
       Occupied  (A) (A) (A) (A) (A) (A) (A) (A) (A) (A) (A) (A)
                 (A) (A) (A) (A) (A) (A) (A) (A) (A) (A) (A) (A)
       Virtual   (A) (A) (A) (A) (A) (A) (A) (A) (A) (A) (A) (A)
                 (A) (A) (A) (A) (A) (A) (A) (A) (A) (A) (A) (A)
                 (A) (A) (A) (A) (A) (A) (A) (A) (A) (A) (A) (A)
                 (A) (A) (A) (A) (A) (A) (A) (A) (A) (A) (A) (A)
                 (A) (A) (A) (A) (A) (A) (A) (A) (A) (A) (A) (A)
                 (A) (A) (A) (A) (A) (A) (A) (A) (A) (A) (A) (A)
                 (A) (A) (A) (A) (A) (A) (A) (A) (A) (A) (A) (A)
                 (A) (A) (A) (A) (A) (A)
 The electronic state is 1-A.
 Alpha  occ. eigenvalues --  -10.13835 -10.13810 -10.13809 -10.13756 -10.13755
 Alpha  occ. eigenvalues --  -10.13730  -0.87118  -0.77241  -0.77236  -0.62263
 Alpha  occ. eigenvalues --   -0.62259  -0.52130  -0.49631  -0.46455  -0.45246
 Alpha  occ. eigenvalues --   -0.45243  -0.42919  -0.36472  -0.36469  -0.32159
 Alpha  occ. eigenvalues --   -0.32156  -0.29244  -0.29238  -0.24265
 Alpha virt. eigenvalues --    0.05930   0.06773   0.12019   0.12021   0.14469
 Alpha virt. eigenvalues --    0.14471   0.19940   0.19941   0.26666   0.26669
 Alpha virt. eigenvalues --    0.27293   0.27914   0.27919   0.31624   0.31631
 Alpha virt. eigenvalues --    0.34084   0.46613   0.47700   0.49651   0.56454
 Alpha virt. eigenvalues --    0.58643   0.62469   0.62474   0.62652   0.62657
 Alpha virt. eigenvalues --    0.71118   0.71123   0.72863   0.72872   0.81309
 Alpha virt. eigenvalues --    0.81317   0.81577   0.83070   0.83076   0.85226
 Alpha virt. eigenvalues --    0.85320   0.88005   0.88008   0.91358   0.91362
 Alpha virt. eigenvalues --    0.91456   0.94912   0.96831   0.96835   0.99131
 Alpha virt. eigenvalues --    1.02000   1.02002   1.05646   1.23896   1.32035
 Alpha virt. eigenvalues --    1.32036   1.36709   1.66789   1.66791   1.69836
 Alpha virt. eigenvalues --    1.69838   1.81021   1.81586   1.89189   1.89199
 Alpha virt. eigenvalues --    2.01206   2.04272   2.04277   2.08650   2.16766
 Alpha virt. eigenvalues --    2.16768   2.24899   2.24906   2.27199   2.27220
 Alpha virt. eigenvalues --    2.39495   2.39499   2.41133   2.46798   2.46805
 Alpha virt. eigenvalues --    2.55371   2.60649   2.69098   2.69113   2.75138
 Alpha virt. eigenvalues --    2.75148   2.97712   3.05435   3.27261   4.24209
 Alpha virt. eigenvalues --    4.33071   4.33078   4.50618   4.50621   4.87485
          Condensed to atoms (all electrons):
               1          2          3          4          5          6
     1  C    4.972082   0.405745  -0.058956  -0.027755  -0.058972   0.405770
     2  C    0.405745   4.972068   0.405778  -0.058967  -0.027739  -0.058974
     3  C   -0.058956   0.405778   4.972107   0.405722  -0.058961  -0.027748
     4  C   -0.027755  -0.058967   0.405722   4.972109   0.405769  -0.058954
     5  C   -0.058972  -0.027739  -0.058961   0.405769   4.972068   0.405746
     6  C    0.405770  -0.058974  -0.027748  -0.058954   0.405746   4.972101
     7  H    0.396395  -0.046877   0.005209   0.000857   0.005208  -0.046925
     8  H   -0.046891   0.396400  -0.046919   0.005220   0.000856   0.005212
     9  H    0.005202  -0.046939   0.396380  -0.046873   0.005195   0.000857
    10  H    0.000858   0.005206  -0.046853   0.396376  -0.046921   0.005208
    11  H    0.005212   0.000856   0.005213  -0.046924   0.396392  -0.046887
    12  H   -0.046917   0.005214   0.000856   0.005212  -0.046884   0.396390
    13  H   -0.046917   0.005207   0.000858   0.005199  -0.046903   0.396393
    14  H    0.005200   0.000857   0.005206  -0.046923   0.396395  -0.046907
    15  H    0.396392  -0.046903   0.005201   0.000857   0.005212  -0.046910
    16  H   -0.046902   0.396395  -0.046951   0.005203   0.000857   0.005201
    17  H    0.005219  -0.046907   0.396385  -0.046861   0.005207   0.000856
    18  H    0.000857   0.005197  -0.046880   0.396373  -0.046907   0.005211
               7          8          9         10         11         12
     1  C    0.396395  -0.046891   0.005202   0.000858   0.005212  -0.046917
     2  C   -0.046877   0.396400  -0.046939   0.005206   0.000856   0.005214
     3  C    0.005209  -0.046919   0.396380  -0.046853   0.005213   0.000856
     4  C    0.000857   0.005220  -0.046873   0.396376  -0.046924   0.005212
     5  C    0.005208   0.000856   0.005195  -0.046921   0.396392  -0.046884
     6  C   -0.046925   0.005212   0.000857   0.005208  -0.046887   0.396390
     7  H    0.630925   0.008247  -0.000438   0.000078  -0.000438  -0.028100
     8  H    0.008247   0.630926  -0.028113   0.000227  -0.000105  -0.000438
     9  H   -0.000438  -0.028113   0.630950  -0.028042   0.000229   0.000078
    10  H    0.000078   0.000227  -0.028042   0.630893  -0.028100  -0.000438
    11  H   -0.000438  -0.000105   0.000229  -0.028100   0.630934   0.008247
    12  H   -0.028100  -0.000438   0.000078  -0.000438   0.008247   0.630922
    13  H    0.008263   0.000228  -0.000106   0.000230  -0.028075  -0.037501
    14  H    0.000230   0.000078  -0.000438   0.008263  -0.037501  -0.028075
    15  H   -0.037503  -0.028072   0.000231  -0.000106   0.000228   0.008259
    16  H   -0.028074  -0.037500   0.008274  -0.000438   0.000078   0.000229
    17  H    0.000227   0.008254  -0.037503   0.008241  -0.000437  -0.000105
    18  H   -0.000106  -0.000438   0.008253  -0.037501   0.008259   0.000228
              13         14         15         16         17         18
     1  C   -0.046917   0.005200   0.396392  -0.046902   0.005219   0.000857
     2  C    0.005207   0.000857  -0.046903   0.396395  -0.046907   0.005197
     3  C    0.000858   0.005206   0.005201  -0.046951   0.396385  -0.046880
     4  C    0.005199  -0.046923   0.000857   0.005203  -0.046861   0.396373
     5  C   -0.046903   0.396395   0.005212   0.000857   0.005207  -0.046907
     6  C    0.396393  -0.046907  -0.046910   0.005201   0.000856   0.005211
     7  H    0.008263   0.000230  -0.037503  -0.028074   0.000227  -0.000106
     8  H    0.000228   0.000078  -0.028072  -0.037500   0.008254  -0.000438
     9  H   -0.000106  -0.000438   0.000231   0.008274  -0.037503   0.008253
    10  H    0.000230   0.008263  -0.000106  -0.000438   0.008241  -0.037501
    11  H   -0.028075  -0.037501   0.000228   0.000078  -0.000437   0.008259
    12  H   -0.037501  -0.028075   0.008259   0.000229  -0.000105   0.000228
    13  H    0.630952   0.008260  -0.028102  -0.000438   0.000078  -0.000438
    14  H    0.008260   0.630963  -0.000438  -0.000106   0.000228  -0.028102
    15  H   -0.028102  -0.000438   0.630944   0.008259  -0.000438   0.000078
    16  H   -0.000438  -0.000106   0.008259   0.630997  -0.028113   0.000231
    17  H    0.000078   0.000228  -0.000438  -0.028113   0.630878  -0.028041
    18  H   -0.000438  -0.028102   0.000078   0.000231  -0.028041   0.630915
 Mulliken charges:
               1
     1  C   -0.265624
     2  C   -0.265616
     3  C   -0.265647
     4  C   -0.265639
     5  C   -0.265617
     6  C   -0.265642
     7  H    0.132820
     8  H    0.132828
     9  H    0.132803
    10  H    0.132821
    11  H    0.132818
    12  H    0.132822
    13  H    0.132812
    14  H    0.132809
    15  H    0.132811
    16  H    0.132798
    17  H    0.132833
    18  H    0.132811
 Sum of Mulliken charges =  -0.00000
 Mulliken charges with hydrogens summed into heavy atoms:
               1
     1  C    0.000007
     2  C    0.000010
     3  C   -0.000012
     4  C   -0.000007
     5  C    0.000010
     6  C   -0.000008
 Electronic spatial extent (au):  <R**2>=            546.5368
 Charge=             -0.0000 electrons
 Dipole moment (field-independent basis, Debye):
    X=              0.0000    Y=             -0.0001    Z=             -0.0000  Tot=              0.0001
 Quadrupole moment (field-independent basis, Debye-Ang):
   XX=            -40.8125   YY=            -40.8132   ZZ=            -37.1270
   XY=              0.0001   XZ=              0.0019   YZ=              0.0013
 Traceless Quadrupole moment (field-independent basis, Debye-Ang):
   XX=             -1.2283   YY=             -1.2290   ZZ=              2.4572
   XY=              0.0001   XZ=              0.0019   YZ=              0.0013
 Octapole moment (field-independent basis, Debye-Ang**2):
  XXX=             -0.0040  YYY=             -0.0016  ZZZ=              0.0000  XYY=              0.0041
  XXY=              0.0013  XXZ=             -0.0007  XZZ=              0.0000  YZZ=             -0.0003
  YYZ=              0.0007  XYZ=             -0.0039
 Hexadecapole moment (field-independent basis, Debye-Ang**3):
 XXXX=           -343.2785 YYYY=           -343.2651 ZZZZ=            -75.5832 XXXY=             -0.0017
 XXXZ=              0.0793 YYYX=              0.0020 YYYZ=              0.0516 ZZZX=              0.0620
 ZZZY=              0.0419 XXYY=           -114.4251 XXZZ=            -64.4770 YYZZ=            -64.4757
 XXYZ=              0.0194 YYXZ=              0.0258 ZZXY=              0.0002
 N-N= 2.712054306661D+02 E-N=-1.088812013440D+03  KE= 2.358486670298D+02
 Calling FoFJK, ICntrl=      2127 FMM=F ISym2X=0 I1Cent= 0 IOpClX= 0 NMat=1 NMatS=1 NMatT=0.
 ***** Axes restored to original set *****
 -------------------------------------------------------------------
 Center     Atomic                   Forces (Hartrees/Bohr)
 Number     Number              X              Y              Z
 -------------------------------------------------------------------
      1        6          -0.047347214   -0.082526737    0.000053927
      2        6           0.047299067   -0.082638654   -0.000026412
      3        6           0.095089273    0.000602310    0.000108548
      4        6           0.047942830    0.082043214   -0.000056906
      5        6          -0.047800862    0.082286613   -0.000112173
      6        6          -0.095182587    0.000233871    0.000033057
      7        1          -0.010534697   -0.018300931   -0.008645744
      8        1           0.010540215   -0.018305772    0.008648789
      9        1           0.021094744    0.000045370    0.008687789
     10        1           0.010583763    0.018265118    0.008646721
     11        1          -0.010578902    0.018287563    0.008631396
     12        1          -0.021118924    0.000015402   -0.008648869
     13        1          -0.021107928    0.000021937    0.008668996
     14        1          -0.010564439    0.018266899   -0.008686288
     15        1          -0.010543547   -0.018283754    0.008670416
     16        1           0.010529394   -0.018298640   -0.008667893
     17        1           0.021121140    0.000031269   -0.008632200
     18        1           0.010578675    0.018254922   -0.008673154
 -------------------------------------------------------------------
 Cartesian Forces:  Max     0.095182587 RMS     0.033487038

 GradGradGradGradGradGradGradGradGradGradGradGradGradGradGradGradGradGrad
 Berny optimization.
 FormGI is forming the generalized inverse of G from B-inverse, IUseBI=4.
 Internal  Forces:  Max     0.137687776 RMS     0.033145085
 Search for a local minimum.
 Step number   1 out of a maximum of  108
 All quantities printed in internal units (Hartrees-Bohrs-Radians)
 Mixed Optimization -- RFO/linear search
 Second derivative matrix not updated -- first step.
 ITU=  0
     Eigenvalues ---    0.02153   0.02155   0.02156   0.03360   0.03361
     Eigenvalues ---    0.04442   0.04443   0.04443   0.04443   0.06035
     Eigenvalues ---    0.06036   0.06036   0.06335   0.06336   0.06360
     Eigenvalues ---    0.08482   0.10236   0.10236   0.10237   0.10238
     Eigenvalues ---    0.10238   0.10239   0.10958   0.10959   0.13341
     Eigenvalues ---    0.13342   0.13342   0.22120   0.22120   0.22121
     Eigenvalues ---    0.37230   0.37230   0.37230   0.37230   0.37230
     Eigenvalues ---    0.37230   0.37230   0.37230   0.37230   0.37230
     Eigenvalues ---    0.37230   0.37230   0.42282   0.42298   0.46412
     Eigenvalues ---    0.46453   0.46466   0.46497
 RFO step:  Lambda=-1.85804821D-01 EMin= 2.15348108D-02
 Linear search not attempted -- first point.
 Maximum step size (   0.300) exceeded in Quadratic search.
    -- Step size scaled by   0.560
 Iteration  1 RMS(Cart)=  0.05478084 RMS(Int)=  0.00006102
 Iteration  2 RMS(Cart)=  0.00004590 RMS(Int)=  0.00000455
 Iteration  3 RMS(Cart)=  0.00000000 RMS(Int)=  0.00000455
 Variable       Old X    -DE/DX   Delta X   Delta X   Delta X     New X
                                 (Linear)    (Quad)   (Total)
    R1        2.63647   0.13721   0.00000   0.11825   0.11825   2.75472
    R2        2.63584   0.13754   0.00000   0.11844   0.11844   2.75428
    R3        2.02201   0.01946   0.00000   0.01954   0.01954   2.04154
    R4        2.02201   0.01946   0.00000   0.01954   0.01954   2.04154
    R5        2.63562   0.13769   0.00000   0.11852   0.11852   2.75414
    R6        2.02201   0.01946   0.00000   0.01954   0.01954   2.04154
    R7        2.02201   0.01947   0.00000   0.01955   0.01955   2.04155
    R8        2.63697   0.13691   0.00000   0.11807   0.11807   2.75504
    R9        2.02201   0.01946   0.00000   0.01954   0.01954   2.04155
   R10        2.02201   0.01946   0.00000   0.01953   0.01953   2.04154
   R11        2.63584   0.13757   0.00000   0.11845   0.11845   2.75429
   R12        2.02201   0.01946   0.00000   0.01953   0.01953   2.04154
   R13        2.02201   0.01946   0.00000   0.01954   0.01954   2.04154
   R14        2.63643   0.13723   0.00000   0.11826   0.11826   2.75469
   R15        2.02201   0.01946   0.00000   0.01954   0.01954   2.04154
   R16        2.02201   0.01947   0.00000   0.01954   0.01954   2.04155
   R17        2.02201   0.01946   0.00000   0.01954   0.01954   2.04154
   R18        2.02201   0.01947   0.00000   0.01954   0.01954   2.04155
    A1        2.09437  -0.00001   0.00000   0.00001   0.00001   2.09438
    A2        1.87078   0.00130   0.00000   0.00292   0.00291   1.87369
    A3        1.87078   0.00130   0.00000   0.00292   0.00292   1.87370
    A4        1.87078   0.00133   0.00000   0.00297   0.00296   1.87374
    A5        1.87078   0.00132   0.00000   0.00296   0.00295   1.87374
    A6        1.87699  -0.00621   0.00000  -0.01395  -0.01394   1.86305
    A7        2.09455  -0.00003   0.00000  -0.00003  -0.00003   2.09451
    A8        1.87074   0.00130   0.00000   0.00292   0.00291   1.87365
    A9        1.87074   0.00130   0.00000   0.00292   0.00291   1.87366
   A10        1.87074   0.00133   0.00000   0.00298   0.00298   1.87372
   A11        1.87074   0.00134   0.00000   0.00300   0.00299   1.87373
   A12        1.87696  -0.00622   0.00000  -0.01396  -0.01395   1.86301
   A13        2.09429   0.00002   0.00000   0.00001   0.00001   2.09431
   A14        1.87080   0.00133   0.00000   0.00300   0.00299   1.87379
   A15        1.87080   0.00133   0.00000   0.00298   0.00298   1.87378
   A16        1.87080   0.00128   0.00000   0.00289   0.00289   1.87369
   A17        1.87080   0.00128   0.00000   0.00289   0.00288   1.87368
   A18        1.87700  -0.00620   0.00000  -0.01394  -0.01394   1.86306
   A19        2.09429   0.00005   0.00000   0.00004   0.00004   2.09433
   A20        1.87080   0.00127   0.00000   0.00288   0.00287   1.87368
   A21        1.87080   0.00128   0.00000   0.00289   0.00288   1.87369
   A22        1.87080   0.00132   0.00000   0.00298   0.00297   1.87377
   A23        1.87080   0.00132   0.00000   0.00297   0.00297   1.87377
   A24        1.87700  -0.00620   0.00000  -0.01394  -0.01393   1.86307
   A25        2.09448   0.00000   0.00000  -0.00001  -0.00001   2.09447
   A26        1.87076   0.00132   0.00000   0.00296   0.00296   1.87372
   A27        1.87076   0.00132   0.00000   0.00297   0.00296   1.87372
   A28        1.87076   0.00130   0.00000   0.00292   0.00292   1.87367
   A29        1.87076   0.00130   0.00000   0.00293   0.00292   1.87368
   A30        1.87697  -0.00621   0.00000  -0.01395  -0.01394   1.86302
   A31        2.09440  -0.00003   0.00000  -0.00003  -0.00002   2.09437
   A32        1.87078   0.00133   0.00000   0.00298   0.00297   1.87375
   A33        1.87078   0.00133   0.00000   0.00298   0.00297   1.87375
   A34        1.87078   0.00130   0.00000   0.00292   0.00291   1.87369
   A35        1.87078   0.00131   0.00000   0.00293   0.00292   1.87370
   A36        1.87698  -0.00621   0.00000  -0.01395  -0.01394   1.86304
    D1        0.00056   0.00001   0.00000   0.00002   0.00002   0.00058
    D2        2.13679   0.00296   0.00000   0.00664   0.00664   2.14344
    D3       -2.13566  -0.00295   0.00000  -0.00663  -0.00663  -2.14229
    D4        2.13675   0.00296   0.00000   0.00665   0.00665   2.14340
    D5       -2.01021   0.00591   0.00000   0.01327   0.01328  -1.99693
    D6        0.00053  -0.00000   0.00000   0.00000   0.00000   0.00053
    D7       -2.13562  -0.00294   0.00000  -0.00661  -0.00661  -2.14224
    D8        0.00060   0.00001   0.00000   0.00001   0.00001   0.00061
    D9        2.01133  -0.00590   0.00000  -0.01326  -0.01326   1.99807
   D10        0.00026   0.00000   0.00000   0.00001   0.00001   0.00027
   D11        2.13645   0.00294   0.00000   0.00660   0.00661   2.14306
   D12       -2.13594  -0.00294   0.00000  -0.00660  -0.00661  -2.14254
   D13       -2.13593  -0.00294   0.00000  -0.00660  -0.00660  -2.14253
   D14        0.00027  -0.00000   0.00000  -0.00000  -0.00000   0.00027
   D15        2.01106  -0.00588   0.00000  -0.01321  -0.01321   1.99785
   D16        2.13645   0.00294   0.00000   0.00662   0.00662   2.14307
   D17       -2.01054   0.00588   0.00000   0.01321   0.01322  -1.99732
   D18        0.00025   0.00000   0.00000   0.00001   0.00001   0.00026
   D19       -0.00099  -0.00001   0.00000  -0.00003  -0.00003  -0.00102
   D20        2.13518   0.00293   0.00000   0.00657   0.00657   2.14176
   D21       -2.13717  -0.00294   0.00000  -0.00661  -0.00662  -2.14378
   D22       -2.13722  -0.00294   0.00000  -0.00662  -0.00662  -2.14384
   D23       -0.00104  -0.00001   0.00000  -0.00002  -0.00002  -0.00106
   D24        2.00979  -0.00587   0.00000  -0.01320  -0.01321   1.99658
   D25        2.13523   0.00293   0.00000   0.00658   0.00658   2.14182
   D26       -2.01178   0.00587   0.00000   0.01318   0.01319  -1.99859
   D27       -0.00094  -0.00000   0.00000  -0.00000  -0.00000  -0.00094
   D28        0.00060   0.00001   0.00000   0.00002   0.00002   0.00061
   D29        2.13677   0.00297   0.00000   0.00666   0.00666   2.14343
   D30       -2.13558  -0.00295   0.00000  -0.00662  -0.00663  -2.14220
   D31       -2.13558  -0.00296   0.00000  -0.00663  -0.00664  -2.14221
   D32        0.00059   0.00000   0.00000   0.00001   0.00001   0.00060
   D33        2.01143  -0.00591   0.00000  -0.01327  -0.01328   1.99815
   D34        2.13677   0.00296   0.00000   0.00665   0.00665   2.14342
   D35       -2.01024   0.00592   0.00000   0.01329   0.01329  -1.99695
   D36        0.00060   0.00000   0.00000   0.00001   0.00001   0.00060
   D37        0.00023   0.00000   0.00000   0.00001   0.00001   0.00024
   D38        2.13644   0.00294   0.00000   0.00661   0.00661   2.14305
   D39       -2.13598  -0.00294   0.00000  -0.00661  -0.00661  -2.14260
   D40       -2.13594  -0.00293   0.00000  -0.00659  -0.00659  -2.14253
   D41        0.00027   0.00001   0.00000   0.00002   0.00002   0.00028
   D42        2.01103  -0.00588   0.00000  -0.01320  -0.01321   1.99782
   D43        2.13640   0.00294   0.00000   0.00661   0.00661   2.14301
   D44       -2.01057   0.00588   0.00000   0.01321   0.01321  -1.99736
   D45        0.00019  -0.00000   0.00000  -0.00001  -0.00001   0.00018
   D46       -0.00066  -0.00001   0.00000  -0.00002  -0.00002  -0.00068
   D47       -2.13685  -0.00296   0.00000  -0.00664  -0.00664  -2.14350
   D48        2.13554   0.00295   0.00000   0.00661   0.00662   2.14216
   D49       -2.13687  -0.00296   0.00000  -0.00664  -0.00664  -2.14351
   D50        2.01012  -0.00590   0.00000  -0.01326  -0.01327   1.99685
   D51       -0.00067  -0.00000   0.00000  -0.00001  -0.00001  -0.00068
   D52        2.13556   0.00295   0.00000   0.00661   0.00662   2.14217
   D53       -0.00064  -0.00000   0.00000  -0.00001  -0.00001  -0.00065
   D54       -2.01143   0.00590   0.00000   0.01325   0.01325  -1.99818
         Item               Value     Threshold  Converged?
 Maximum Force            0.137688     0.000450     NO 
 RMS     Force            0.033145     0.000300     NO 
 Maximum Displacement     0.141385     0.001800     NO 
 RMS     Displacement     0.054800     0.001200     NO 
 Predicted change in Energy=-8.359025D-02
 GradGradGradGradGradGradGradGradGradGradGradGradGradGradGradGradGradGrad

                          Input orientation:                          
 ---------------------------------------------------------------------
 Center     Atomic      Atomic             Coordinates (Angstroms)
 Number     Number       Type             X           Y           Z
 ---------------------------------------------------------------------
      1          6           0       -2.717045   -0.035981    0.000028
      2          6           0       -1.259309   -0.035983    0.000018
      3          6           0       -0.530441    1.226099    0.000036
      4          6           0       -1.259352    2.488704   -0.001227
      5          6           0       -2.716857    2.488658   -0.001733
      6          6           0       -3.445772    1.226270   -0.000679
      7          1           0       -3.039302   -0.594671   -0.866659
      8          1           0       -0.937098   -0.594237    0.867003
      9          1           0        0.113344    1.226538    0.867605
     10          1           0       -0.937336    3.047549    0.865447
     11          1           0       -3.039449    3.047740    0.864577
     12          1           0       -4.090520    1.225719   -0.867530
     13          1           0       -4.090120    1.226925    0.866472
     14          1           0       -3.038850    3.045957   -0.869417
     15          1           0       -3.039298   -0.593692    0.867347
     16          1           0       -0.937103   -0.594225   -0.866983
     17          1           0        0.114846    1.225679   -0.866411
     18          1           0       -0.936739    3.046169   -0.868570
 ---------------------------------------------------------------------
                    Distance matrix (angstroms):
                    1          2          3          4          5
     1  C    0.000000
     2  C    1.457736   0.000000
     3  C    2.524694   1.457429   0.000000
     4  C    2.915288   2.524688   1.457904   0.000000
     5  C    2.524639   2.915178   2.524772   1.457505   0.000000
     6  C    1.457505   2.524659   2.915331   2.524713   1.457718
     7  H    1.080338   2.057093   3.218811   3.663932   3.218538
     8  H    2.057063   1.080338   2.056848   3.219037   3.664217
     9  H    3.218345   2.056901   1.080340   2.057238   3.218498
    10  H    3.663942   3.218820   2.057227   1.080336   2.056953
    11  H    3.218807   3.664111   3.218839   2.056911   1.080339
    12  H    2.056933   3.218740   3.664264   3.218870   2.057078
    13  H    2.056937   3.218566   3.663608   3.218422   2.057086
    14  H    3.218359   3.663473   3.218687   2.056914   1.080341
    15  H    1.080339   2.057100   3.218421   3.663851   3.218719
    16  H    2.057070   1.080343   2.056860   3.218358   3.663379
    17  H    3.219023   2.056889   1.080336   2.057230   3.218901
    18  H    3.663823   3.218410   2.057233   1.080338   2.056950
                    6          7          8          9         10
     6  C    0.000000
     7  H    2.056931   0.000000
     8  H    3.218783   2.724857   0.000000
     9  H    3.663499   4.032821   2.102058   0.000000
    10  H    3.218615   4.547990   3.641786   2.102383   0.000000
    11  H    2.057066   4.032906   4.205220   3.641001   2.102113
    12  H    1.080338   2.102113   4.032978   4.547875   4.032970
    13  H    1.080341   2.725100   3.641178   4.203464   3.640703
    14  H    2.057074   3.640629   4.547915   4.032847   2.725090
    15  H    2.056928   1.734006   2.102200   3.640383   4.204389
    16  H    3.218401   2.102199   1.733986   2.725327   4.032844
    17  H    3.664354   3.641747   2.724592   1.734016   2.725001
    18  H    3.218775   4.204342   4.032960   2.725442   1.734018
                   11         12         13         14         15
    11  H    0.000000
    12  H    2.724831   0.000000
    13  H    2.102209   1.734002   0.000000
    14  H    1.733995   2.102209   2.725318   0.000000
    15  H    3.641433   2.724908   2.102112   4.032790   0.000000
    16  H    4.547754   3.640912   4.032737   4.203365   2.725275
    17  H    4.033088   4.205366   4.548035   3.641321   4.032946
    18  H    2.724920   3.641480   4.032844   2.102111   4.547830
                   16         17         18
    16  H    0.000000
    17  H    2.102058   0.000000
    18  H    3.640394   2.102384   0.000000
 Stoichiometry    C6H12
 Framework group  C1[X(C6H12)]
 Deg. of freedom    48
 Full point group                 C1      NOp   1
 Largest Abelian subgroup         C1      NOp   1
 Largest concise Abelian subgroup C1      NOp   1
                         Standard orientation:                         
 ---------------------------------------------------------------------
 Center     Atomic      Atomic             Coordinates (Angstroms)
 Number     Number       Type             X           Y           Z
 ---------------------------------------------------------------------
      1          6           0        0.513582   -1.364142   -0.000030
      2          6           0       -0.924687   -1.126710    0.000301
      3          6           0       -1.438255    0.237236   -0.000308
      4          6           0       -0.513426    1.364256    0.000043
      5          6           0        0.924608    1.126814    0.000228
      6          6           0        1.438172   -0.237442   -0.000235
      7          1           0        0.740808   -1.967382    0.866919
      8          1           0       -1.333796   -1.625505   -0.866281
      9          1           0       -2.073644    0.342050   -0.867735
     10          1           0       -0.740390    1.967609   -0.866893
     11          1           0        1.333682    1.625408   -0.866486
     12          1           0        2.074493   -0.342524    0.866474
     13          1           0        2.073750   -0.342225   -0.867528
     14          1           0        1.333346    1.624703    0.867509
     15          1           0        0.740420   -1.967373   -0.867088
     16          1           0       -1.333245   -1.624538    0.867705
     17          1           0       -2.074722    0.342403    0.866281
     18          1           0       -0.740659    1.967302    0.867125
 ---------------------------------------------------------------------
 Rotational constants (GHZ):           4.5002563           4.5000778           2.4482717
 Standard basis: 6-31G(d) (6D, 7F)
 There are   114 symmetry adapted cartesian basis functions of A   symmetry.
 There are   114 symmetry adapted basis functions of A   symmetry.
   114 basis functions,   216 primitive gaussians,   114 cartesian basis functions
    24 alpha electrons       24 beta electrons
       nuclear repulsion energy       261.6341736602 Hartrees.
 NAtoms=   18 NActive=   18 NUniq=   18 SFac= 1.00D+00 NAtFMM=   60 NAOKFM=F Big=F
 Integral buffers will be    131072 words long.
 Raffenetti 2 integral format.
 Two-electron integral symmetry is turned on.
 One-electron integrals computed using PRISM.
 NBasis=   114 RedAO= T EigKep=  1.41D-03  NBF=   114
 NBsUse=   114 1.00D-06 EigRej= -1.00D+00 NBFU=   114
 Initial guess from the checkpoint file:  "planar_chex.chk"
 B after Tr=    -0.000000   -0.000000   -0.000000
         Rot=    0.973812   -0.000233    0.000216   -0.227354 Ang= -26.28 deg.
 ExpMin= 1.61D-01 ExpMax= 3.05D+03 ExpMxC= 4.57D+02 IAcc=3 IRadAn=         5 AccDes= 0.00D+00
 Harris functional with IExCor=  402 and IRadAn=       5 diagonalized for initial guess.
 HarFok:  IExCor=  402 AccDes= 0.00D+00 IRadAn=         5 IDoV= 1 UseB2=F ITyADJ=14
 ICtDFT=  3500011 ScaDFX=  1.000000  1.000000  1.000000  1.000000
 FoFCou: FMM=F IPFlag=           0 FMFlag=      100000 FMFlg1=           0
         NFxFlg=           0 DoJE=T BraDBF=F KetDBF=T FulRan=T
         wScrn=  0.000000 ICntrl=       500 IOpCl=  0 I1Cent=   200000004 NGrid=           0
         NMat0=    1 NMatS0=      1 NMatT0=    0 NMatD0=    1 NMtDS0=    0 NMtDT0=    0
 Petite list used in FoFCou.
 Keep R1 ints in memory in canonical form, NReq=25245998.
 Requested convergence on RMS density matrix=1.00D-08 within 128 cycles.
 Requested convergence on MAX density matrix=1.00D-06.
 Requested convergence on             energy=1.00D-06.
 No special actions if energy rises.
 Integral accuracy reduced to 1.0D-05 until final iterations.
 Initial convergence to 1.0D-05 achieved.  Increase integral accuracy.
 SCF Done:  E(RB3LYP) =  -235.799497369     A.U. after    9 cycles
            NFock=  9  Conv=0.28D-08     -V/T= 2.0044
 Calling FoFJK, ICntrl=      2127 FMM=F ISym2X=0 I1Cent= 0 IOpClX= 0 NMat=1 NMatS=1 NMatT=0.
 ***** Axes restored to original set *****
 -------------------------------------------------------------------
 Center     Atomic                   Forces (Hartrees/Bohr)
 Number     Number              X              Y              Z
 -------------------------------------------------------------------
      1        6          -0.023038657   -0.040132622    0.000029301
      2        6           0.022972246   -0.040211956   -0.000026072
      3        6           0.046250270    0.000278573    0.000066135
      4        6           0.023321517    0.039901476   -0.000031231
      5        6          -0.023206588    0.040043381   -0.000060712
      6        6          -0.046299199    0.000120664    0.000022626
      7        1          -0.006216382   -0.010797580   -0.004557398
      8        1           0.006223949   -0.010794039    0.004559594
      9        1           0.012441522    0.000017642    0.004583460
     10        1           0.006237409    0.010783303    0.004557650
     11        1          -0.006237341    0.010788246    0.004549121
     12        1          -0.012457163    0.000005579   -0.004560129
     13        1          -0.012448289    0.000007647    0.004572640
     14        1          -0.006226874    0.010775434   -0.004582155
     15        1          -0.006223081   -0.010786207    0.004571889
     16        1           0.006214371   -0.010786719   -0.004571381
     17        1           0.012460657    0.000008798   -0.004550075
     18        1           0.006231634    0.010778379   -0.004573263
 -------------------------------------------------------------------
 Cartesian Forces:  Max     0.046299199 RMS     0.016643438

 GradGradGradGradGradGradGradGradGradGradGradGradGradGradGradGradGradGrad
 Berny optimization.
 Using GEDIIS/GDIIS optimizer.
 FormGI is forming the generalized inverse of G from B-inverse, IUseBI=4.
 Internal  Forces:  Max     0.071345644 RMS     0.017271270
 Search for a local minimum.
 Step number   2 out of a maximum of  108
 All quantities printed in internal units (Hartrees-Bohrs-Radians)
 Mixed Optimization -- RFO/linear search
 Update second derivatives using D2CorX and points    1    2
 DE= -7.80D-02 DEPred=-8.36D-02 R= 9.34D-01
 TightC=F SS=  1.41D+00  RLast= 3.05D-01 DXNew= 5.0454D-01 9.1547D-01
 Trust test= 9.34D-01 RLast= 3.05D-01 DXMaxT set to 5.05D-01
 ITU=  1  0
 Use linear search instead of GDIIS.
     Eigenvalues ---    0.02153   0.02155   0.02156   0.03348   0.03349
     Eigenvalues ---    0.04419   0.04420   0.04420   0.04420   0.06019
     Eigenvalues ---    0.06020   0.06020   0.06323   0.06323   0.06450
     Eigenvalues ---    0.08511   0.10265   0.10265   0.10266   0.10266
     Eigenvalues ---    0.10267   0.10267   0.10982   0.10983   0.13359
     Eigenvalues ---    0.13360   0.13360   0.22088   0.22088   0.22088
     Eigenvalues ---    0.37230   0.37230   0.37230   0.37230   0.37230
     Eigenvalues ---    0.37230   0.37230   0.37230   0.37230   0.37230
     Eigenvalues ---    0.37230   0.37296   0.42554   0.42571   0.46441
     Eigenvalues ---    0.46462   0.46468   0.55301
 RFO step:  Lambda=-6.05126610D-03 EMin= 2.15348104D-02
 Quartic linear search produced a step of  1.66428.
 Iteration  1 RMS(Cart)=  0.10258063 RMS(Int)=  0.00085862
 Iteration  2 RMS(Cart)=  0.00072779 RMS(Int)=  0.00016665
 Iteration  3 RMS(Cart)=  0.00000044 RMS(Int)=  0.00016665
 Variable       Old X    -DE/DX   Delta X   Delta X   Delta X     New X
                                 (Linear)    (Quad)   (Total)
    R1        2.75472   0.07109   0.19680  -0.01032   0.18649   2.94121
    R2        2.75428   0.07127   0.19712  -0.01041   0.18671   2.94099
    R3        2.04154   0.01109   0.03251   0.00758   0.04009   2.08163
    R4        2.04154   0.01109   0.03252   0.00757   0.04009   2.08163
    R5        2.75414   0.07135   0.19725  -0.01041   0.18684   2.94098
    R6        2.04154   0.01109   0.03251   0.00756   0.04008   2.08162
    R7        2.04155   0.01110   0.03253   0.00755   0.04008   2.08163
    R8        2.75504   0.07097   0.19649  -0.01006   0.18643   2.94147
    R9        2.04155   0.01109   0.03252   0.00756   0.04008   2.08163
   R10        2.04154   0.01109   0.03251   0.00757   0.04008   2.08162
   R11        2.75429   0.07126   0.19713  -0.01052   0.18661   2.94089
   R12        2.04154   0.01109   0.03251   0.00758   0.04009   2.08163
   R13        2.04154   0.01109   0.03251   0.00758   0.04009   2.08163
   R14        2.75469   0.07114   0.19682  -0.01015   0.18667   2.94136
   R15        2.04154   0.01109   0.03252   0.00756   0.04008   2.08162
   R16        2.04155   0.01109   0.03252   0.00756   0.04008   2.08163
   R17        2.04154   0.01109   0.03251   0.00757   0.04008   2.08162
   R18        2.04155   0.01109   0.03252   0.00756   0.04008   2.08163
    A1        2.09438  -0.00001   0.00001  -0.00010  -0.00008   2.09430
    A2        1.87369   0.00080   0.00484   0.01221   0.01676   1.89045
    A3        1.87370   0.00080   0.00485   0.01225   0.01681   1.89051
    A4        1.87374   0.00082   0.00492   0.01244   0.01708   1.89083
    A5        1.87374   0.00081   0.00492   0.01243   0.01706   1.89080
    A6        1.86305  -0.00382  -0.02320  -0.05854  -0.08146   1.78158
    A7        2.09451  -0.00001  -0.00005   0.00005  -0.00000   2.09451
    A8        1.87365   0.00080   0.00484   0.01234   0.01689   1.89054
    A9        1.87366   0.00080   0.00485   0.01242   0.01698   1.89064
   A10        1.87372   0.00081   0.00495   0.01211   0.01678   1.89050
   A11        1.87373   0.00081   0.00497   0.01222   0.01691   1.89064
   A12        1.86301  -0.00382  -0.02321  -0.05846  -0.08140   1.78161
   A13        2.09431   0.00002   0.00002   0.00007   0.00008   2.09439
   A14        1.87379   0.00081   0.00497   0.01237   0.01706   1.89085
   A15        1.87378   0.00081   0.00495   0.01226   0.01693   1.89071
   A16        1.87369   0.00079   0.00480   0.01228   0.01679   1.89048
   A17        1.87368   0.00079   0.00479   0.01219   0.01670   1.89038
   A18        1.86306  -0.00381  -0.02319  -0.05848  -0.08140   1.78166
   A19        2.09433   0.00001   0.00007  -0.00014  -0.00008   2.09426
   A20        1.87368   0.00080   0.00478   0.01248   0.01697   1.89065
   A21        1.87369   0.00080   0.00480   0.01252   0.01703   1.89072
   A22        1.87377   0.00080   0.00495   0.01220   0.01686   1.89064
   A23        1.87377   0.00080   0.00494   0.01220   0.01685   1.89062
   A24        1.86307  -0.00382  -0.02318  -0.05856  -0.08147   1.78160
   A25        2.09447   0.00001  -0.00001   0.00005   0.00004   2.09451
   A26        1.87372   0.00081   0.00492   0.01233   0.01696   1.89068
   A27        1.87372   0.00081   0.00492   0.01237   0.01701   1.89072
   A28        1.87367   0.00079   0.00485   0.01217   0.01674   1.89041
   A29        1.87368   0.00080   0.00487   0.01224   0.01682   1.89050
   A30        1.86302  -0.00382  -0.02321  -0.05848  -0.08141   1.78162
   A31        2.09437  -0.00001  -0.00004   0.00007   0.00003   2.09440
   A32        1.87375   0.00081   0.00494   0.01215   0.01681   1.89055
   A33        1.87375   0.00081   0.00494   0.01220   0.01686   1.89061
   A34        1.87369   0.00080   0.00485   0.01232   0.01689   1.89058
   A35        1.87370   0.00080   0.00486   0.01240   0.01697   1.89067
   A36        1.86304  -0.00382  -0.02321  -0.05846  -0.08139   1.78165
    D1        0.00058   0.00001   0.00003   0.00026   0.00029   0.00087
    D2        2.14344   0.00182   0.01106   0.02789   0.03904   2.18247
    D3       -2.14229  -0.00181  -0.01103  -0.02760  -0.03872  -2.18101
    D4        2.14340   0.00182   0.01107   0.02811   0.03926   2.18266
    D5       -1.99693   0.00364   0.02210   0.05574   0.07801  -1.91892
    D6        0.00053   0.00000   0.00000   0.00025   0.00025   0.00078
    D7       -2.14224  -0.00181  -0.01101  -0.02762  -0.03871  -2.18095
    D8        0.00061  -0.00000   0.00002   0.00001   0.00004   0.00065
    D9        1.99807  -0.00363  -0.02207  -0.05547  -0.07772   1.92035
   D10        0.00027   0.00000   0.00001   0.00012   0.00013   0.00040
   D11        2.14306   0.00181   0.01099   0.02789   0.03897   2.18203
   D12       -2.14254  -0.00181  -0.01099  -0.02779  -0.03888  -2.18142
   D13       -2.14253  -0.00181  -0.01098  -0.02762  -0.03869  -2.18122
   D14        0.00027   0.00000  -0.00000   0.00015   0.00015   0.00041
   D15        1.99785  -0.00362  -0.02199  -0.05553  -0.07770   1.92015
   D16        2.14307   0.00181   0.01102   0.02790   0.03901   2.18208
   D17       -1.99732   0.00362   0.02200   0.05567   0.07785  -1.91947
   D18        0.00026  -0.00000   0.00001  -0.00001   0.00001   0.00027
   D19       -0.00102  -0.00001  -0.00005  -0.00045  -0.00050  -0.00152
   D20        2.14176   0.00180   0.01094   0.02744   0.03847   2.18023
   D21       -2.14378  -0.00182  -0.01101  -0.02813  -0.03923  -2.18301
   D22       -2.14384  -0.00182  -0.01102  -0.02819  -0.03930  -2.18315
   D23       -0.00106  -0.00001  -0.00003  -0.00030  -0.00033  -0.00139
   D24        1.99658  -0.00363  -0.02198  -0.05587  -0.07804   1.91855
   D25        2.14182   0.00181   0.01095   0.02750   0.03854   2.18036
   D26       -1.99859   0.00362   0.02194   0.05539   0.07752  -1.92108
   D27       -0.00094   0.00000  -0.00001  -0.00018  -0.00019  -0.00113
   D28        0.00061   0.00001   0.00003   0.00027   0.00030   0.00091
   D29        2.14343   0.00182   0.01109   0.02800   0.03917   2.18260
   D30       -2.14220  -0.00181  -0.01103  -0.02749  -0.03861  -2.18081
   D31       -2.14221  -0.00182  -0.01104  -0.02767  -0.03880  -2.18101
   D32        0.00060  -0.00000   0.00001   0.00006   0.00007   0.00067
   D33        1.99815  -0.00364  -0.02210  -0.05543  -0.07771   1.92045
   D34        2.14342   0.00182   0.01107   0.02798   0.03914   2.18256
   D35       -1.99695   0.00364   0.02212   0.05571   0.07801  -1.91894
   D36        0.00060   0.00001   0.00001   0.00022   0.00024   0.00084
   D37        0.00024   0.00000   0.00001   0.00010   0.00012   0.00035
   D38        2.14305   0.00181   0.01100   0.02781   0.03890   2.18195
   D39       -2.14260  -0.00181  -0.01100  -0.02773  -0.03882  -2.18142
   D40       -2.14253  -0.00181  -0.01096  -0.02776  -0.03881  -2.18134
   D41        0.00028  -0.00000   0.00003  -0.00006  -0.00003   0.00026
   D42        1.99782  -0.00362  -0.02198  -0.05559  -0.07775   1.92007
   D43        2.14301   0.00182   0.01100   0.02802   0.03911   2.18212
   D44       -1.99736   0.00363   0.02199   0.05572   0.07789  -1.91947
   D45        0.00018   0.00000  -0.00002   0.00019   0.00017   0.00035
   D46       -0.00068  -0.00001  -0.00003  -0.00030  -0.00033  -0.00101
   D47       -2.14350  -0.00182  -0.01106  -0.02798  -0.03913  -2.18263
   D48        2.14216   0.00181   0.01101   0.02752   0.03862   2.18078
   D49       -2.14351  -0.00182  -0.01106  -0.02807  -0.03922  -2.18273
   D50        1.99685  -0.00364  -0.02208  -0.05576  -0.07802   1.91883
   D51       -0.00068  -0.00001  -0.00001  -0.00026  -0.00027  -0.00095
   D52        2.14217   0.00181   0.01101   0.02760   0.03870   2.18087
   D53       -0.00065   0.00000  -0.00002  -0.00009  -0.00010  -0.00075
   D54       -1.99818   0.00363   0.02206   0.05542   0.07765  -1.92053
         Item               Value     Threshold  Converged?
 Maximum Force            0.071346     0.000450     NO 
 RMS     Force            0.017271     0.000300     NO 
 Maximum Displacement     0.277648     0.001800     NO 
 RMS     Displacement     0.102638     0.001200     NO 
 Predicted change in Energy=-2.083062D-02
 GradGradGradGradGradGradGradGradGradGradGradGradGradGradGradGradGradGrad

                          Input orientation:                          
 ---------------------------------------------------------------------
 Center     Atomic      Atomic             Coordinates (Angstroms)
 Number     Number       Type             X           Y           Z
 ---------------------------------------------------------------------
      1          6           0       -2.766488   -0.121569    0.000085
      2          6           0       -1.210067   -0.121575   -0.000099
      3          6           0       -0.431751    1.226125    0.000239
      4          6           0       -1.209871    2.574238   -0.001292
      5          6           0       -2.766123    2.574206   -0.001929
      6          6           0       -3.544502    1.226313   -0.000562
      7          1           0       -3.112742   -0.721971   -0.856093
      8          1           0       -0.863722   -0.721596    0.856303
      9          1           0        0.259959    1.226645    0.857532
     10          1           0       -0.863889    3.174823    0.854865
     11          1           0       -3.112871    3.174987    0.853777
     12          1           0       -4.237445    1.225726   -0.856854
     13          1           0       -4.236806    1.226983    0.856251
     14          1           0       -3.112220    3.172983   -0.859306
     15          1           0       -3.112604   -0.721041    0.856972
     16          1           0       -0.863826   -0.721272   -0.856777
     17          1           0        0.261771    1.225862   -0.855581
     18          1           0       -0.863205    3.173350   -0.858207
 ---------------------------------------------------------------------
                    Distance matrix (angstroms):
                    1          2          3          4          5
     1  C    0.000000
     2  C    1.556421   0.000000
     3  C    2.695788   1.556300   0.000000
     4  C    3.112946   2.695813   1.556561   0.000000
     5  C    2.695776   3.112643   2.695667   1.556252   0.000000
     6  C    1.556307   2.695624   3.112751   2.695812   1.556499
     7  H    1.101551   2.171031   3.422878   3.900845   3.422648
     8  H    2.171097   1.101547   2.170959   3.423129   3.901026
     9  H    3.422321   2.171222   1.101551   2.171172   3.422246
    10  H    3.900864   3.423017   2.171302   1.101550   2.171021
    11  H    3.422872   3.900908   3.422717   2.171048   1.101547
    12  H    2.171006   3.422612   3.901015   3.422963   2.171194
    13  H    2.171048   3.422440   3.900154   3.422398   2.171265
    14  H    3.422303   3.900069   3.422570   2.171086   1.101550
    15  H    1.101553   2.171077   3.422341   3.900753   3.422925
    16  H    2.171170   1.101552   2.171065   3.422279   3.899958
    17  H    3.423169   2.171115   1.101545   2.171096   3.422703
    18  H    3.900723   3.422454   2.171352   1.101551   2.171009
                    6          7          8          9         10
     6  C    0.000000
     7  H    2.171211   0.000000
     8  H    3.422740   2.826729   0.000000
     9  H    3.900032   4.255435   2.249067   0.000000
    10  H    3.422592   4.813494   3.896420   2.249097   0.000000
    11  H    2.171067   4.255577   4.499115   3.895129   2.248982
    12  H    1.101548   2.249107   4.255465   4.813083   4.255566
    13  H    1.101551   2.827377   3.895466   4.496765   3.894952
    14  H    2.171136   3.894955   4.813191   4.255274   2.827256
    15  H    2.171195   1.713065   2.248882   3.894568   4.498276
    16  H    3.422311   2.248916   1.713080   2.827743   4.255500
    17  H    3.901124   3.896331   2.826636   1.713114   2.826868
    18  H    3.422844   4.498215   4.255602   2.827529   1.713073
                   11         12         13         14         15
    11  H    0.000000
    12  H    2.826755   0.000000
    13  H    2.248990   1.713106   0.000000
    14  H    1.713085   2.248988   2.827498   0.000000
    15  H    3.896029   2.827079   2.249140   4.255471   0.000000
    16  H    4.813007   3.895139   4.255250   4.496722   2.827355
    17  H    4.255490   4.499216   4.813269   3.895524   4.255546
    18  H    2.826993   3.895989   4.255454   2.249015   4.813306
                   16         17         18
    16  H    0.000000
    17  H    2.249067   0.000000
    18  H    3.894623   2.249064   0.000000
 Stoichiometry    C6H12
 Framework group  C1[X(C6H12)]
 Deg. of freedom    48
 Full point group                 C1      NOp   1
 Largest Abelian subgroup         C1      NOp   1
 Largest concise Abelian subgroup C1      NOp   1
                         Standard orientation:                         
 ---------------------------------------------------------------------
 Center     Atomic      Atomic             Coordinates (Angstroms)
 Number     Number       Type             X           Y           Z
 ---------------------------------------------------------------------
      1          6           0        1.555732    0.047521   -0.000047
      2          6           0        0.818914   -1.323445    0.000479
      3          6           0       -0.736659   -1.371007   -0.000490
      4          6           0       -1.555767   -0.047398    0.000068
      5          6           0       -0.818997    1.323401    0.000363
      6          6           0        0.736777    1.370927   -0.000374
      7          1           0        2.248151    0.068689    0.856412
      8          1           0        1.183836   -1.912983   -0.855489
      9          1           0       -1.064218   -1.980457   -0.857630
     10          1           0       -2.248220   -0.068239   -0.856370
     11          1           0       -1.183678    1.912839   -0.855778
     12          1           0        1.064979    1.981431    0.855766
     13          1           0        1.064289    1.980648   -0.857339
     14          1           0       -1.182940    1.912132    0.857307
     15          1           0        2.247987    0.068192   -0.856654
     16          1           0        1.182881   -1.911923    0.857590
     17          1           0       -1.065105   -1.981609    0.855483
     18          1           0       -2.247965   -0.068724    0.856703
 ---------------------------------------------------------------------
 Rotational constants (GHZ):           3.9901906           3.9896657           2.1452401
 Standard basis: 6-31G(d) (6D, 7F)
 There are   114 symmetry adapted cartesian basis functions of A   symmetry.
 There are   114 symmetry adapted basis functions of A   symmetry.
   114 basis functions,   216 primitive gaussians,   114 cartesian basis functions
    24 alpha electrons       24 beta electrons
       nuclear repulsion energy       247.3305837750 Hartrees.
 NAtoms=   18 NActive=   18 NUniq=   18 SFac= 1.00D+00 NAtFMM=   60 NAOKFM=F Big=F
 Integral buffers will be    131072 words long.
 Raffenetti 2 integral format.
 Two-electron integral symmetry is turned on.
 One-electron integrals computed using PRISM.
 NBasis=   114 RedAO= T EigKep=  2.53D-03  NBF=   114
 NBsUse=   114 1.00D-06 EigRej= -1.00D+00 NBFU=   114
 Initial guess from the checkpoint file:  "planar_chex.chk"
 B after Tr=    -0.000000    0.000000   -0.000000
         Rot=    0.813510   -0.000000   -0.000000   -0.581551 Ang= -71.12 deg.
 ExpMin= 1.61D-01 ExpMax= 3.05D+03 ExpMxC= 4.57D+02 IAcc=3 IRadAn=         5 AccDes= 0.00D+00
 Harris functional with IExCor=  402 and IRadAn=       5 diagonalized for initial guess.
 HarFok:  IExCor=  402 AccDes= 0.00D+00 IRadAn=         5 IDoV= 1 UseB2=F ITyADJ=14
 ICtDFT=  3500011 ScaDFX=  1.000000  1.000000  1.000000  1.000000
 FoFCou: FMM=F IPFlag=           0 FMFlag=      100000 FMFlg1=           0
         NFxFlg=           0 DoJE=T BraDBF=F KetDBF=T FulRan=T
         wScrn=  0.000000 ICntrl=       500 IOpCl=  0 I1Cent=   200000004 NGrid=           0
         NMat0=    1 NMatS0=      1 NMatT0=    0 NMatD0=    1 NMtDS0=    0 NMtDT0=    0
 Petite list used in FoFCou.
 Keep R1 ints in memory in canonical form, NReq=25245998.
 Requested convergence on RMS density matrix=1.00D-08 within 128 cycles.
 Requested convergence on MAX density matrix=1.00D-06.
 Requested convergence on             energy=1.00D-06.
 No special actions if energy rises.
 Integral accuracy reduced to 1.0D-05 until final iterations.
 Initial convergence to 1.0D-05 achieved.  Increase integral accuracy.
 SCF Done:  E(RB3LYP) =  -235.837671753     A.U. after   10 cycles
            NFock= 10  Conv=0.10D-08     -V/T= 2.0109
 Calling FoFJK, ICntrl=      2127 FMM=F ISym2X=0 I1Cent= 0 IOpClX= 0 NMat=1 NMatS=1 NMatT=0.
 ***** Axes restored to original set *****
 -------------------------------------------------------------------
 Center     Atomic                   Forces (Hartrees/Bohr)
 Number     Number              X              Y              Z
 -------------------------------------------------------------------
      1        6          -0.003851284   -0.006806355    0.000006474
      2        6           0.003921871   -0.006807003   -0.000005067
      3        6           0.007819078    0.000132190    0.000011845
      4        6           0.003961149    0.006715175   -0.000006716
      5        6          -0.004015984    0.006745629   -0.000008438
      6        6          -0.007831642    0.000024094    0.000001770
      7        1           0.002630528    0.004587584   -0.000265096
      8        1          -0.002639901    0.004569855    0.000259343
      9        1          -0.005295522   -0.000013311    0.000261070
     10        1          -0.002633108   -0.004586417    0.000265508
     11        1           0.002645843   -0.004569865    0.000266919
     12        1           0.005280128    0.000007621   -0.000259098
     13        1           0.005292205    0.000005861    0.000262387
     14        1           0.002653611   -0.004579218   -0.000261191
     15        1           0.002628561    0.004592701    0.000261687
     16        1          -0.002651099    0.004585160   -0.000268728
     17        1          -0.005275867   -0.000015544   -0.000260606
     18        1          -0.002638568   -0.004588157   -0.000262062
 -------------------------------------------------------------------
 Cartesian Forces:  Max     0.007831642 RMS     0.003611005

 GradGradGradGradGradGradGradGradGradGradGradGradGradGradGradGradGradGrad
 Berny optimization.
 Using GEDIIS/GDIIS optimizer.
 FormGI is forming the generalized inverse of G from B-inverse, IUseBI=4.
 Internal  Forces:  Max     0.003122108 RMS     0.001618388
 Search for a local minimum.
 Step number   3 out of a maximum of  108
 All quantities printed in internal units (Hartrees-Bohrs-Radians)
 Mixed Optimization -- RFO/linear search
 Update second derivatives using D2CorX and points    2    3
 DE= -3.82D-02 DEPred=-2.08D-02 R= 1.83D+00
 TightC=F SS=  1.41D+00  RLast= 6.20D-01 DXNew= 8.4853D-01 1.8588D+00
 Trust test= 1.83D+00 RLast= 6.20D-01 DXMaxT set to 8.49D-01
 ITU=  1  1  0
 Use linear search instead of GDIIS.
     Eigenvalues ---    0.02153   0.02155   0.02156   0.03274   0.03275
     Eigenvalues ---    0.04282   0.04283   0.04283   0.04283   0.05926
     Eigenvalues ---    0.05927   0.05927   0.06239   0.06239   0.06355
     Eigenvalues ---    0.08691   0.10439   0.10440   0.10440   0.10441
     Eigenvalues ---    0.10442   0.10442   0.11134   0.11135   0.13469
     Eigenvalues ---    0.13470   0.13470   0.21905   0.21905   0.21905
     Eigenvalues ---    0.37025   0.37230   0.37230   0.37230   0.37230
     Eigenvalues ---    0.37230   0.37230   0.37230   0.37230   0.37230
     Eigenvalues ---    0.37230   0.37230   0.39515   0.42846   0.42863
     Eigenvalues ---    0.46442   0.46462   0.46468
 RFO step:  Lambda=-1.90253253D-03 EMin= 2.15348049D-02
 Quartic linear search produced a step of -0.10755.
 Iteration  1 RMS(Cart)=  0.01676829 RMS(Int)=  0.00014707
 Iteration  2 RMS(Cart)=  0.00014647 RMS(Int)=  0.00002241
 Iteration  3 RMS(Cart)=  0.00000000 RMS(Int)=  0.00002241
 Variable       Old X    -DE/DX   Delta X   Delta X   Delta X     New X
                                 (Linear)    (Quad)   (Total)
    R1        2.94121  -0.00274  -0.02006   0.01194  -0.00811   2.93310
    R2        2.94099  -0.00272  -0.02008   0.01202  -0.00806   2.93293
    R3        2.08163  -0.00312  -0.00431  -0.00423  -0.00854   2.07309
    R4        2.08163  -0.00312  -0.00431  -0.00423  -0.00854   2.07309
    R5        2.94098  -0.00272  -0.02009   0.01203  -0.00806   2.93292
    R6        2.08162  -0.00312  -0.00431  -0.00422  -0.00853   2.07309
    R7        2.08163  -0.00312  -0.00431  -0.00423  -0.00854   2.07309
    R8        2.94147  -0.00281  -0.02005   0.01178  -0.00827   2.93321
    R9        2.08163  -0.00312  -0.00431  -0.00423  -0.00854   2.07309
   R10        2.08162  -0.00312  -0.00431  -0.00423  -0.00854   2.07308
   R11        2.94089  -0.00269  -0.02007   0.01207  -0.00800   2.93289
   R12        2.08163  -0.00312  -0.00431  -0.00423  -0.00854   2.07309
   R13        2.08163  -0.00312  -0.00431  -0.00423  -0.00854   2.07309
   R14        2.94136  -0.00279  -0.02008   0.01186  -0.00821   2.93315
   R15        2.08162  -0.00312  -0.00431  -0.00422  -0.00853   2.07309
   R16        2.08163  -0.00312  -0.00431  -0.00423  -0.00854   2.07309
   R17        2.08162  -0.00312  -0.00431  -0.00423  -0.00854   2.07309
   R18        2.08163  -0.00312  -0.00431  -0.00423  -0.00854   2.07309
    A1        2.09430   0.00002   0.00001   0.00008   0.00008   2.09438
    A2        1.89045  -0.00046  -0.00180  -0.00636  -0.00820   1.88225
    A3        1.89051  -0.00046  -0.00181  -0.00636  -0.00821   1.88230
    A4        1.89083  -0.00048  -0.00184  -0.00657  -0.00845   1.88238
    A5        1.89080  -0.00048  -0.00184  -0.00657  -0.00844   1.88236
    A6        1.78158   0.00226   0.00876   0.03147   0.04027   1.82185
    A7        2.09451  -0.00001   0.00000  -0.00005  -0.00005   2.09446
    A8        1.89054  -0.00046  -0.00182  -0.00645  -0.00831   1.88224
    A9        1.89064  -0.00046  -0.00183  -0.00644  -0.00831   1.88233
   A10        1.89050  -0.00046  -0.00180  -0.00641  -0.00825   1.88225
   A11        1.89064  -0.00046  -0.00182  -0.00641  -0.00826   1.88237
   A12        1.78161   0.00226   0.00875   0.03146   0.04025   1.82186
   A13        2.09439  -0.00001  -0.00001  -0.00003  -0.00004   2.09435
   A14        1.89085  -0.00047  -0.00183  -0.00652  -0.00839   1.88246
   A15        1.89071  -0.00047  -0.00182  -0.00652  -0.00838   1.88233
   A16        1.89048  -0.00045  -0.00181  -0.00634  -0.00818   1.88229
   A17        1.89038  -0.00045  -0.00180  -0.00634  -0.00818   1.88220
   A18        1.78166   0.00226   0.00875   0.03145   0.04024   1.82190
   A19        2.09426   0.00003   0.00001   0.00010   0.00011   2.09437
   A20        1.89065  -0.00048  -0.00183  -0.00654  -0.00840   1.88225
   A21        1.89072  -0.00048  -0.00183  -0.00655  -0.00842   1.88230
   A22        1.89064  -0.00046  -0.00181  -0.00641  -0.00826   1.88237
   A23        1.89062  -0.00046  -0.00181  -0.00640  -0.00826   1.88236
   A24        1.78160   0.00227   0.00876   0.03148   0.04028   1.82187
[...]
 442428,-0.0294222,-0.0707516,-0.076621,-0.0652022,-0.1129948,-0.079590
 2,-0.0367343,0.0294764,-0.0442402,0.0295293,-0.0708754,0.0766363,-0.06
 52093,0.112964,-0.0795197,-0.0872067,-0.0000365,-0.0884564,-0.0000121,
 -0.0198513,-0.0000105,-0.1305165,-0.0000374,-0.0801173,-0.0366854,-0.0
 293465,-0.0442118,-0.0294651,-0.0708762,-0.0766388,-0.0652007,-0.11299
 3,-0.0795752,-0.0367785,0.0295221,0.04423,0.0295796,-0.071013,-0.07663
 5,0.06521,-0.1129786,-0.079351,-0.08786,-0.0000482,-0.0884589,-0.00011
 88,-0.0197397,-0.0000251,-0.1304503,-0.0000343,-0.079537,-0.0874218,0.
 0000742,0.0884491,0.0001523,-0.019825,-0.0000657,0.13049,-0.0000403,-0
 .0799157,-0.0367247,0.0292482,-0.0442611,0.0291908,-0.0703567,0.076621
 1,-0.0652498,0.1130153,-0.0800859,-0.0367175,-0.0292753,0.0442645,-0.0
 29357,-0.0705747,0.0766222,0.0652614,0.1129936,-0.0798579,-0.036757,0.
 0292825,0.0442438,0.0292386,-0.0705065,-0.0766257,0.0652406,-0.1130374
 ,-0.0799174,-0.0880743,0.0000518,0.0884498,0.0000273,-0.0197134,-0.000
 0415,0.1304223,-0.0000304,-0.0793355,-0.0368414,-0.029444,0.0443029,-0
 .029317,-0.0704369,0.0765986,0.0652731,0.112988,-0.0798727\Polar=62.04
 48004,-0.0010741,62.0443243,0.0017412,-0.0047013,54.1404068\Quadrupole
 =-0.3095058,-0.3097027,0.6192085,-0.0001558,-0.0002041,0.0005521\PG=C0
 1 [X(C6H12)]\NImag=3\\0.45407837,0.03231740,0.49141039,0.00000022,0.00
 004088,0.57873012,-0.16644788,-0.01021756,0.00003620,0.45397050,0.0101
 9638,-0.08006271,-0.00002324,-0.03223142,0.49149115,0.00005242,0.00000
 581,-0.07097638,0.00000837,-0.00003400,0.57866186,-0.01100904,-0.02469
 976,-0.00001144,-0.10169413,-0.04757507,-0.00006519,0.50993772,-0.0108
 1348,0.00935614,0.00001721,-0.02716687,-0.14509967,-0.00004876,-0.0000
 1366,0.43594681,-0.00000033,0.00001491,-0.00343043,-0.00002618,-0.0000
 8477,-0.07094530,-0.00009149,0.00006003,0.57869907,-0.00307167,0.00414
 588,0.00000102,0.01967454,-0.00694474,0.00003653,-0.10169823,0.0271470
 9,-0.00006123,0.45411759,0.00414635,0.00172824,-0.00000079,0.00694917,
 -0.02117553,0.00002098,0.04754466,-0.14503115,0.00012869,0.03234446,0.
 49136363,-0.00000702,0.00000398,0.00175052,0.00003609,0.00000163,-0.00
 343973,-0.00008973,0.00008121,-0.07100002,-0.00008383,0.00009402,0.578
 73285,0.01967464,0.00694941,-0.00002586,-0.00303138,-0.00416231,0.0000
 0110,-0.01102453,0.01079983,-0.00000415,-0.16648812,-0.01021860,-0.000
 03710,0.45401027,-0.00694451,-0.02117556,0.00001483,-0.00416279,0.0016
 8925,-0.00000527,0.02470003,0.00937900,-0.00000076,0.01019713,-0.08006
 140,0.00002974,-0.03225611,0.49144842,-0.00000973,0.00000469,-0.003439
 81,0.00000264,0.00000188,0.00174354,-0.00002273,-0.00001700,-0.0034306
 5,-0.00007774,0.00001054,-0.07097760,-0.00001323,0.00010455,0.57866262
 ,-0.10170923,0.04756660,-0.00000181,-0.01102440,0.02470022,-0.00001606
 ,0.00403749,0.00004224,-0.00000304,-0.01100920,-0.02469959,0.00003085,
 -0.10168417,-0.04755511,0.00008430,0.50993867,0.02716714,-0.14506627,0
 .00003824,0.01080001,0.00937880,-0.00000008,0.00004263,-0.00542948,0.0
 0000168,-0.01081337,0.00935625,-0.00002978,-0.02714861,-0.14506785,0.0
 0010722,-0.00006575,0.43595067,0.00000951,0.00001073,-0.07100062,-0.00
 001475,-0.00001189,-0.00343068,0.00000237,0.00000595,0.00176260,0.0000
 0761,-0.00003193,-0.00343041,0.00003768,0.00012328,-0.07094423,0.00004
 096,0.00010836,0.57869715,-0.06736435,-0.04343290,-0.06163274,-0.01624
 394,-0.01545435,-0.02415355,-0.00274770,0.00185082,-0.00123859,0.00004
 860,0.00024900,0.00007276,-0.00130407,0.00045082,0.00091922,0.00158761
 ,0.01131362,0.00979811,0.08485858,-0.04344210,-0.11750899,-0.10671852,
 0.00101474,-0.00079279,-0.00263188,-0.00038081,0.00001972,0.00034758,0
 .00024709,0.00033388,0.00012660,0.00267462,-0.00141760,-0.00090367,-0.
 00513919,-0.01861847,-0.02224201,0.03804218,0.12878933,-0.06232772,-0.
 10794444,-0.21955718,0.00224433,0.00151375,0.00199762,0.00061653,0.000
 70854,-0.00006701,0.00004063,0.00007130,0.00003821,0.00030895,0.000889
 11,-0.00007279,0.00018882,0.00269162,0.00200139,0.06708424,0.11617688,
 0.23295580,-0.01624518,0.01545662,-0.02415079,-0.06733015,0.04342509,-
 0.06159317,0.00160864,-0.01131708,0.00978624,-0.00131317,-0.00045201,0
 .00091956,0.00004816,-0.00024956,0.00007464,-0.00274927,-0.00185041,-0
 .00124024,-0.00351447,-0.00003252,-0.00032091,0.08481969,-0.00101355,-
 0.00078797,0.00263304,0.04342436,-0.11754567,0.10676301,0.00514870,-0.
 01864405,0.02222851,-0.00268399,-0.00141781,0.00089689,-0.00024792,0.0
 0033663,-0.00012825,0.00038107,0.00002096,-0.00034531,0.00003293,-0.00
 024635,-0.00029398,-0.03804822,0.12883218,0.00224416,-0.00150940,0.001
 99996,-0.06229939,0.10799283,-0.21951861,0.00018566,-0.00270214,0.0020
 0194,0.00030780,-0.00089364,-0.00006693,0.00004145,-0.00007174,0.00003
 880,0.00061696,-0.00071118,-0.00006796,-0.00032091,0.00029375,0.000888
 13,0.06705252,-0.11620895,0.23291645,-0.00003822,-0.00193731,-0.000320
 95,-0.01086069,-0.00207006,-0.01438884,-0.14206606,-0.00004471,-0.1230
 7599,-0.01086638,0.00205516,-0.01438494,-0.00003656,0.00193523,-0.0003
 1945,0.00047423,-0.00000002,0.00014810,-0.00049268,-0.00003372,0.00003
 720,0.00163107,0.00044599,0.00049540,0.15015693,0.00028274,-0.00267877
 ,-0.00124690,-0.01846411,-0.00615463,-0.01965036,-0.00004110,-0.042276
 92,-0.00005882,0.01846957,-0.00613395,0.01964935,-0.00028435,-0.002681
 77,0.00124897,-0.00000031,-0.00009360,0.00000027,-0.00092050,0.0000594
 1,0.00000471,-0.00172474,0.00088986,-0.00063644,0.00004855,0.06291997,
 0.00092034,0.00017255,-0.00007354,0.00240220,0.00117557,0.00198158,-0.
 12446581,-0.00006004,-0.22009906,0.00239088,-0.00116901,0.00196293,0.0
 0092095,-0.00017102,-0.00007301,0.00008103,-0.00000043,0.00003869,0.00
 001995,0.00003014,0.00000027,0.00079566,-0.00011901,0.00271251,0.13398
 226,0.00006471,0.23354449,0.00004781,0.00024698,0.00007201,-0.00130943
 ,0.00045006,0.00091889,0.00159240,0.01131941,0.00978285,-0.06727245,-0
 .04338061,-0.06148073,-0.01622318,-0.01544935,-0.02416741,-0.00274236,
 0.00184125,-0.00124556,0.00007008,-0.00001505,0.00000510,0.00006018,0.
 00002943,-0.00002170,0.00163182,0.00172494,0.00079243,0.08475112,0.000
 24823,0.00033476,0.00012705,0.00268499,-0.00141821,-0.00089566,-0.0051
 3246,-0.01864239,-0.02223113,-0.04339651,-0.11761528,-0.10681177,0.001
 02414,-0.00079567,-0.00262421,-0.00037966,0.00001985,0.00034382,-0.000
 01533,0.00005271,0.00000873,-0.00002768,-0.00050363,0.00001741,-0.0004
 4094,0.00088716,0.00011328,0.03798536,0.12891214,0.00004134,0.00007088
 ,0.00003820,0.00030590,0.00089340,-0.00006712,0.00018799,0.00271728,0.
 00201855,-0.06218016,-0.10803579,-0.21954404,0.00222320,0.00150284,0.0
 0198190,0.00061166,0.00070903,-0.00007250,0.00000512,0.00000873,-0.000
 02208,-0.00002288,-0.00001665,0.00001504,0.00049244,0.00063549,0.00271
 628,0.06695634,0.11625666,0.23294119,-0.00131111,-0.00045331,-0.000919
 48,0.00004791,-0.00024957,-0.00007438,-0.00274716,-0.00184614,0.001242
 17,-0.01624851,0.01546968,0.02413614,-0.06736677,0.04350986,0.06159727
 ,0.00160642,-0.01132466,-0.00977816,0.00033494,-0.00044437,-0.00001548
 ,0.00006838,0.00012409,-0.00002178,-0.00036148,0.00027057,-0.00002689,
 0.00052498,0.00108845,0.00029155,0.08486124,-0.00268084,-0.00141720,-0
 .00089758,-0.00024762,0.00033653,0.00012797,0.00038011,0.00002160,0.00
 034466,-0.00101796,-0.00078948,-0.00262911,0.04351029,-0.11772880,-0.1
 0683793,0.00515065,-0.01865555,-0.02221044,0.00044362,-0.00076974,0.00
 003365,0.00012410,-0.00007533,0.00003776,0.00021746,-0.00007967,-0.000
 01040,-0.00108414,0.00199852,0.00075040,-0.03813324,0.12902627,-0.0003
 0570,0.00089335,-0.00006862,-0.00004117,0.00007129,0.00003864,-0.00061
 699,0.00071010,-0.00007020,-0.00224509,0.00151597,0.00200705,0.0623009
 9,-0.10806174,-0.21930014,-0.00019164,0.00271499,0.00201648,0.00001427
 ,0.00003511,0.00000041,0.00002170,-0.00003767,0.00003865,0.00000303,-0
 .00002791,0.00001532,-0.00029459,0.00075314,0.00270976,-0.06706185,0.1
 1628694,0.23267988,-0.01090415,0.00204952,-0.01435388,-0.00003595,0.00
 194108,-0.00032169,0.00047766,-0.00000020,0.00014931,-0.00003518,-0.00
 194866,-0.00031668,-0.01090905,-0.00207975,-0.01435624,-0.14262409,-0.
 00009258,-0.12325365,0.00163233,-0.00044019,0.00049460,-0.00049431,0.0
 0003468,0.00003723,0.00004379,-0.00000004,0.00001010,-0.00049326,-0.00
 003435,0.00003646,-0.00106382,-0.00144762,0.00009522,0.15079857,0.0185
 3147,-0.00611664,0.01960370,-0.00028206,-0.00269039,0.00124878,0.00000
 089,-0.00009341,0.00000073,0.00028546,-0.00269521,-0.00124267,-0.01853
 858,-0.00614530,-0.01958721,-0.00009283,-0.04228061,-0.00014241,0.0017
 2754,0.00088888,0.00063189,0.00092306,0.00005870,-0.00000421,-0.000000
 15,0.00007882,-0.00000006,-0.00092242,0.00005854,0.00000262,-0.0013813
 6,-0.00269627,-0.00042180,0.00010714,0.06289742,0.00241504,-0.00117666
 ,0.00198210,0.00092449,-0.00017472,-0.00007204,0.00008000,-0.00000083,
 0.00003806,0.00092579,0.00018066,-0.00006715,0.00244652,0.00119595,0.0
 0201615,-0.12466971,-0.00014073,-0.21952634,0.00079585,0.00011179,0.00
 271487,0.00002125,-0.00003017,0.00000031,0.00001039,-0.00000007,-0.000
 02211,0.00002332,0.00003003,0.00000019,-0.00041275,-0.00012743,0.00088
 876,0.13417104,0.00013435,0.23292358,-0.01087988,0.00207245,0.01437177
 ,-0.00003571,0.00193740,0.00031610,0.00047490,0.00000009,-0.00014776,-
 0.00003687,-0.00193894,0.00032225,-0.01087491,-0.00205368,0.01438063,-
 0.14226460,0.00010846,0.12314003,-0.00106404,0.00145170,-0.00009341,-0
 .00036200,0.00021742,-0.00000337,-0.00014880,-0.00000083,-0.00004382,-
 0.00035940,-0.00021404,-0.00000546,0.00163132,0.00044497,-0.00049672,0
 .01391299,-0.00001422,-0.01702183,0.15038046,0.01848922,-0.00615296,-0
 .01962266,-0.00028592,-0.00268579,-0.00124558,-0.00000042,-0.00009351,
 -0.00000019,0.00028213,-0.00268043,0.00124969,-0.01848893,-0.00612977,
 0.01964124,0.00011253,-0.04227770,-0.00015708,0.00139089,-0.00270511,-
 0.00042537,0.00027126,-0.00007984,0.00002812,-0.00000080,0.00014026,0.
 00000042,-0.00026979,-0.00007922,-0.00002832,-0.00172644,0.00089106,0.
 00063673,0.00001433,0.00056251,-0.00002020,-0.00011651,0.06291439,-0.0
 0242462,0.00118270,0.00199470,-0.00092180,0.00017629,-0.00007083,-0.00
 008081,0.00000060,0.00003844,-0.00092160,-0.00017158,-0.00007380,-0.00
 239167,-0.00117015,0.00196886,0.12453617,-0.00015668,-0.21989767,0.000
 41550,-0.00012970,0.00089282,0.00002632,0.00001072,0.00001521,0.000043
 62,-0.00000053,0.00003898,0.00002726,-0.00000927,0.00001454,-0.0007948
 9,0.00012049,0.00271105,0.01696574,-0.00002218,-0.02454733,-0.13404983
 ,0.00014402,0.23332645,-0.00130525,-0.00044890,0.00092114,0.00004746,-
 0.00024935,0.00007437,-0.00273987,-0.00184692,-0.00123904,-0.01622576,
 0.01538688,-0.02420530,-0.06724840,0.04322470,-0.06159207,0.00157736,-
 0.01128830,0.00982290,0.00006051,-0.00002620,-0.00002295,0.00007012,0.
 00001531,0.00000519,-0.00049194,0.00092009,0.00002007,-0.00352530,-0.0
 0003003,-0.00032466,0.00390664,-0.00577088,0.00851931,0.00162897,-0.00
 172643,0.00080103,-0.00106485,-0.00139540,0.00041812,0.08474409,-0.002
 66671,-0.00141198,0.00090292,-0.00024563,0.00033368,-0.00012696,0.0003
 8142,0.00001884,-0.00034747,-0.00101809,-0.00078730,0.00263648,0.04322
 208,-0.11707877,0.10656357,0.00511395,-0.01857466,0.02228612,0.0000280
 7,-0.00050039,-0.00001676,0.00001511,0.00005247,-0.00000896,0.00003418
 ,0.00005913,-0.00002989,0.00002995,-0.00024359,-0.00029309,-0.00578357
 ,0.01057519,-0.01477176,0.00044428,0.00089197,-0.00011406,-0.00145329,
 -0.00270793,0.00013629,-0.03780415,0.12830291,0.00031205,-0.00088458,-
 0.00007336,0.00004161,-0.00007288,0.00003948,0.00061249,-0.00071017,-0
 .00006872,0.00222676,-0.00149332,0.00198267,-0.06228434,0.10777190,-0.
 22007638,0.00018122,-0.00265354,0.00196684,-0.00002152,0.00001841,0.00
 001536,0.00000505,-0.00000872,-0.00002203,0.00003644,-0.00000341,0.000
 00048,-0.00032483,0.00029625,0.00089134,-0.00847623,0.01465918,-0.0245
 5026,0.00049668,-0.00062947,0.00271255,-0.00009205,0.00043208,0.000893
 47,0.06703581,-0.11600633,0.23352097,-0.06729954,-0.04331386,0.0615805
 4,-0.01622694,-0.01540503,0.02418806,-0.00274033,0.00184038,0.00124310
 ,0.00004772,0.00024662,-0.00007238,-0.00130739,0.00044888,-0.00091983,
 0.00159064,0.01130461,-0.00980308,0.00390831,0.00577731,-0.00850917,0.
 00052482,-0.00108302,0.00029608,-0.00035882,-0.00026918,-0.00002719,0.
 00006729,-0.00012572,-0.00002078,0.00006015,0.00002912,0.00002163,-0.0
 0106380,0.00138445,-0.00041456,0.00163193,0.00172430,-0.00079585,0.000
 33466,0.00044366,-0.00001611,0.08478395,-0.04332757,-0.11729754,0.1066
 4679,0.00102229,-0.00079531,0.00262790,-0.00037997,0.00001846,-0.00034
 341,0.00024819,0.00033398,-0.00012736,0.00268068,-0.00141784,0.0008996
 1,-0.00513472,-0.01860685,0.02226342,0.00577648,0.01057646,-0.01473504
 ,0.00108917,0.00199692,-0.00075210,-0.00021405,-0.00007898,0.00000918,
 -0.00012568,-0.00007682,-0.00003684,-0.00002730,-0.00050288,-0.0000169
 5,0.00144963,-0.00269922,0.00013303,-0.00044114,0.00088688,-0.00011059
 ,-0.00044311,-0.00076819,-0.00003204,0.03790558,0.12856237,0.06227612,
 0.10786611,-0.21983599,-0.00222672,-0.00150273,0.00198582,-0.00061065,
 -0.00070794,-0.00007214,-0.00004166,-0.00007115,0.00003856,-0.00031030
 ,-0.00089016,-0.00006894,-0.00018187,-0.00268092,0.00198706,0.00848642
 ,0.01469890,-0.02455082,-0.00029262,-0.00074972,0.00271157,0.00000571,
 0.00002834,0.00001454,0.00002100,0.00003703,0.00003950,0.00002289,0.00
 001738,0.00001512,0.00009327,0.00042827,0.00088996,-0.00049272,-0.0006
 3147,0.00271660,0.00001500,-0.00003380,0.00000057,-0.06704625,-0.11609
 144,0.23325735,-0.01622931,0.01540000,0.02418910,-0.06727553,0.0433047
 0,0.06158910,0.00157541,-0.01129676,-0.00981650,-0.00130326,-0.0004499
 8,-0.00092103,0.00004740,-0.00024920,-0.00007422,-0.00273786,-0.001843
 04,0.00124098,0.00052498,0.00108633,0.00029556,0.00390632,-0.00577435,
 -0.00850633,-0.00106505,-0.00139916,-0.00041818,0.00033466,-0.00044299
 ,-0.00001398,0.00007009,0.00001522,-0.00000520,-0.00036161,0.00027059,
 -0.00002616,-0.00049178,0.00092014,-0.00002195,0.00006842,0.00012463,-
 0.00002217,-0.00352962,-0.00002868,0.00032382,0.08477704,-0.00102167,-
 0.00078955,-0.00263345,0.04330141,-0.11727134,-0.10664332,0.00511593,-
 0.01858563,-0.02226917,-0.00266308,-0.00141160,-0.00090357,-0.00024569
 ,0.00033339,0.00012661,0.00038034,0.00001990,0.00034681,-0.00108474,0.
 00199604,0.00075034,-0.00577976,0.01057559,0.01473942,-0.00145428,-0.0
 0271159,-0.00013344,0.00044381,-0.00076810,0.00003544,0.00001510,0.000
 05250,0.00000893,0.00021751,-0.00007964,-0.00001104,0.00003420,0.00005
 903,0.00002981,0.00012464,-0.00007589,0.00003811,0.00002938,-0.0002425
 1,0.00029475,-0.03788407,0.12850559,-0.00222783,0.00149972,0.00198931,
 0.06227749,-0.10784647,-0.21985736,-0.00018743,0.00266624,0.00198190,-
 0.00031007,0.00088451,-0.00007517,-0.00004133,0.00007244,0.00003933,-0
 .00061239,0.00070887,-0.00007084,-0.00029183,0.00075095,0.00271120,0.0
 0848843,-0.01469195,-0.02455041,0.00009265,-0.00042960,0.00089540,0.00
 001609,0.00003223,0.00000050,-0.00000505,0.00000870,-0.00002197,0.0000
 0383,-0.00002824,0.00001534,-0.00003643,0.00000323,0.00000041,0.000022
 09,-0.00003801,0.00003879,0.00032390,-0.00029519,0.00089300,-0.0670355
 7,0.11609073,0.23328404,-0.00003432,-0.00195007,0.00031799,-0.01092231
 ,-0.00206291,0.01434804,-0.14282279,0.00004807,0.12331743,-0.01091842,
 0.00206719,0.01434054,-0.00003460,0.00194346,0.00031830,0.00047832,-0.
 00000056,-0.00014896,-0.00036189,-0.00021404,-0.00000528,-0.00106376,-
 0.00144639,-0.00009463,0.01391293,-0.00000541,-0.01693518,-0.00106356,
 0.00144842,-0.00009613,-0.00049415,0.00003469,-0.00003722,-0.00014778,
 -0.00000077,-0.00004334,0.00004376,-0.00000001,-0.00001001,-0.00036214
 ,0.00021747,-0.00000415,-0.00049310,-0.00003447,-0.00003637,0.00162922
 ,0.00044322,-0.00049798,0.15102217,0.00028483,-0.00269669,0.00124546,-
 0.01856377,-0.00612037,0.01957986,0.00005033,-0.04228098,-0.00006429,0
 .01855051,-0.00613557,-0.01957515,-0.00028364,-0.00269461,-0.00124532,
 0.00000082,-0.00009332,-0.00000053,-0.00027242,-0.00008027,-0.00002823
 ,-0.00137796,-0.00269285,0.00042436,0.00000633,0.00056250,-0.00000796,
 0.00138171,-0.00269689,-0.00042225,0.00092311,0.00005861,0.00000398,-0
 .00000074,0.00013988,0.00000023,-0.00000020,0.00007888,-0.00000005,0.0
 0027129,-0.00007979,0.00002843,-0.00092252,0.00005836,-0.00000258,-0.0
 0172758,0.00089346,0.00062976,-0.00004745,0.06289131,-0.00092729,-0.00
 017967,-0.00006753,-0.00243612,-0.00119031,0.00200398,0.12473967,-0.00
 006496,-0.21932633,-0.00244873,0.00119056,0.00201320,-0.00092508,0.000
 18001,-0.00006973,-0.00007979,0.00000100,0.00003781,0.00002643,-0.0000
 0998,0.00001429,0.00041276,0.00013028,0.00088687,0.01705240,-0.0000091
 1,-0.02454713,0.00041120,-0.00012731,0.00088934,-0.00002320,0.00003008
 ,0.00000025,0.00004313,-0.00000035,0.00003883,-0.00001029,-0.00000005,
 -0.00002221,0.00002561,0.00001135,0.00001523,-0.00002302,-0.00003009,0
 .00000020,-0.00080024,0.00011554,0.00271109,-0.13423816,0.00006214,0.2
 3270673,0.00004832,0.00024879,-0.00007303,-0.00130196,0.00044987,-0.00
 092011,0.00158564,0.01129786,-0.00981678,-0.06740122,-0.04337078,0.061
 74055,-0.01624734,-0.01541003,0.02417565,-0.00274557,0.00184958,0.0012
 3614,0.00006721,-0.00012578,-0.00002104,0.00033494,0.00044346,-0.00001
 434,-0.00106409,0.00139326,-0.00041879,0.00390860,0.00576011,-0.008487
 98,-0.00351907,0.00003207,0.00032003,-0.00036132,-0.00027179,-0.000026
 37,-0.00049252,-0.00092060,-0.00001971,0.00052529,-0.00108334,0.000293
 31,0.00007006,-0.00001532,-0.00000509,0.00006048,0.00002775,0.00002145
 ,0.00163241,0.00172734,-0.00079928,0.08490016,0.00024667,0.00033330,-0
 .00012698,0.00267077,-0.00141699,0.00090755,-0.00514144,-0.01858339,0.
 02227324,-0.04337979,-0.11718126,0.10654980,0.00101370,-0.00079175,0.0
 0263471,-0.00038125,0.00001792,-0.00034716,-0.00012574,-0.00007674,-0.
 00003672,-0.00044449,-0.00076981,-0.00003487,0.00145315,-0.00270721,0.
 00013539,0.00579413,0.01057613,-0.01474980,-0.00003088,-0.00024539,-0.
 00029273,-0.00021406,-0.00008003,0.00000988,-0.00003383,0.00005924,-0.
 00003019,0.00108674,0.00199431,-0.00074988,-0.00001497,0.00005271,-0.0
 0000888,-0.00002583,-0.00049965,-0.00001793,-0.00044044,0.00088834,-0.
 00010912,0.03796755,0.12843028,-0.00004095,-0.00007157,0.00003857,-0.0
 0031319,-0.00088562,-0.00007447,-0.00018244,-0.00265533,0.00196932,0.0
 6243309,0.10776998,-0.21985112,-0.00224776,-0.00151380,0.00200208,-0.0
 0061566,-0.00070766,-0.00006678,0.00002126,0.00003691,0.00003949,0.000
 01647,-0.00003206,0.00000049,0.00009053,0.00043131,0.00089338,0.008508
 33,0.01468372,-0.02455059,0.00032013,0.00029569,0.00088983,0.00000552,
 0.00002824,0.00001429,-0.00003710,-0.00000462,0.00000029,-0.00029661,-
 0.00074963,0.00271300,-0.00000508,-0.00000888,-0.00002198,0.00002296,0
 .00001750,0.00001544,-0.00049489,-0.00062786,0.00271511,-0.06718463,-0
 .11600631,0.23327366\\0.00000103,0.00001975,-0.00000461,0.00002757,0.0
 0002431,0.00001127,-0.00003518,-0.00000618,-0.00001166,-0.00002027,-0.
 00000634,0.00000481,-0.00000931,-0.00001294,0.00000253,0.00003650,-0.0
 0001816,-0.00000243,-0.00000049,0.00002378,0.00000798,-0.00001858,0.00
 002112,0.00000069,-0.00000513,-0.00000649,-0.00001895,-0.00000765,-0.0
 0002010,-0.00000747,0.00001495,-0.00001763,-0.00000323,0.00002687,0.00
 000303,0.00000179,0.00000982,0.00000799,-0.00001509,0.00000205,-0.0000
 0609,0.00001605,0.00000641,0.00001493,-0.00001135,-0.00000069,0.000001
 04,0.00002000,-0.00003193,-0.00000140,-0.00000214,0.00000402,-0.000020
 61,0.00001181\\\@


 IT IS UNWORTHY OF EXCELLENT MEN TO LOSE HOURS LIKE SLAVES IN THE LABOR
 OF CALCULATION WHICH COULD BE SAFELY RELEGATED TO ANYONE ELSE
 IF A MACHINE WERE USED.
    -- G.W. VON LEIBNIZ
 Job cpu time:       0 days  0 hours  6 minutes 32.7 seconds.
 Elapsed time:       0 days  0 hours  1 minutes 38.4 seconds.
 File lengths (MBytes):  RWF=     31 Int=      0 D2E=      0 Chk=      2 Scr=      1
 Normal termination of Gaussian 16 at Wed May 19 15:25:44 2021.
