 Entering Gaussian System, Link 0=g16
 Input=planar_chex_mode3.com
 Output=planar_chex_mode3.log
 Initial command:
 /Applications/Gaussian/g16/l1.exe "/var/folders/2d/352180cn2v1_bxhw2xpm1ypm0000gn/T/Gau-75440.inp" -scrdir="/var/folders/2d/352180cn2v1_bxhw2xpm1ypm0000gn/T/"
 Entering Link 1 = /Applications/Gaussian/g16/l1.exe PID=     75441.
  
 Copyright (c) 1988-2017, Gaussian, Inc.  All Rights Reserved.
  
 This is part of the Gaussian(R) 16 program.  It is based on
 the Gaussian(R) 09 system (copyright 2009, Gaussian, Inc.),
 the Gaussian(R) 03 system (copyright 2003, Gaussian, Inc.),
 the Gaussian(R) 98 system (copyright 1998, Gaussian, Inc.),
 the Gaussian(R) 94 system (copyright 1995, Gaussian, Inc.),
 the Gaussian 92(TM) system (copyright 1992, Gaussian, Inc.),
 the Gaussian 90(TM) system (copyright 1990, Gaussian, Inc.),
 the Gaussian 88(TM) system (copyright 1988, Gaussian, Inc.),
 the Gaussian 86(TM) system (copyright 1986, Carnegie Mellon
 University), and the Gaussian 82(TM) system (copyright 1983,
 Carnegie Mellon University). Gaussian is a federally registered
 trademark of Gaussian, Inc.
  
 This software contains proprietary and confidential information,
 including trade secrets, belonging to Gaussian, Inc.
  
 This software is provided under written license and may be
 used, copied, transmitted, or stored only in accord with that
 written license.
  
 The following legend is applicable only to US Government
 contracts under FAR:
  
                    RESTRICTED RIGHTS LEGEND
  
 Use, reproduction and disclosure by the US Government is
 subject to restrictions as set forth in subparagraphs (a)
 and (c) of the Commercial Computer Software - Restricted
 Rights clause in FAR 52.227-19.
  
 Gaussian, Inc.
 340 Quinnipiac St., Bldg. 40, Wallingford CT 06492
  
  
 ---------------------------------------------------------------
 Warning -- This program may not be used in any manner that
 competes with the business of Gaussian, Inc. or will provide
 assistance to any competitor of Gaussian, Inc.  The licensee
 of this program is prohibited from giving any competitor of
 Gaussian, Inc. access to this program.  By using this program,
 the user acknowledges that Gaussian, Inc. is engaged in the
 business of creating and licensing software in the field of
 computational chemistry and represents and warrants to the
 licensee that it is not a competitor of Gaussian, Inc. and that
 it will not use this program in any manner prohibited above.
 ---------------------------------------------------------------
  

 Cite this work as:
 Gaussian 16, Revision B.01,
 M. J. Frisch, G. W. Trucks, H. B. Schlegel, G. E. Scuseria, 
 M. A. Robb, J. R. Cheeseman, G. Scalmani, V. Barone, 
 G. A. Petersson, H. Nakatsuji, X. Li, M. Caricato, A. V. Marenich, 
 J. Bloino, B. G. Janesko, R. Gomperts, B. Mennucci, H. P. Hratchian, 
 J. V. Ortiz, A. F. Izmaylov, J. L. Sonnenberg, D. Williams-Young, 
 F. Ding, F. Lipparini, F. Egidi, J. Goings, B. Peng, A. Petrone, 
 T. Henderson, D. Ranasinghe, V. G. Zakrzewski, J. Gao, N. Rega, 
 G. Zheng, W. Liang, M. Hada, M. Ehara, K. Toyota, R. Fukuda, 
 J. Hasegawa, M. Ishida, T. Nakajima, Y. Honda, O. Kitao, H. Nakai, 
 T. Vreven, K. Throssell, J. A. Montgomery, Jr., J. E. Peralta, 
 F. Ogliaro, M. J. Bearpark, J. J. Heyd, E. N. Brothers, K. N. Kudin, 
 V. N. Staroverov, T. A. Keith, R. Kobayashi, J. Normand, 
 K. Raghavachari, A. P. Rendell, J. C. Burant, S. S. Iyengar, 
 J. Tomasi, M. Cossi, J. M. Millam, M. Klene, C. Adamo, R. Cammi, 
 J. W. Ochterski, R. L. Martin, K. Morokuma, O. Farkas, 
 J. B. Foresman, and D. J. Fox, Gaussian, Inc., Wallingford CT, 2016.
 
 ******************************************
 Gaussian 16:  EM64M-G16RevB.01 20-Dec-2017
                19-May-2021 
 ******************************************
 %chk=planar_chex_mode3.chk
 %nproc=4
 Will use up to    4 processors via shared memory.
 %mem=4GB
 ----------------------------------
 # symm=loose opt b3lyp/6-31G* freq
 ----------------------------------
 1/18=20,19=15,26=3,38=1/1,3;
 2/9=110,12=2,17=4,18=3,40=1/2;
 3/5=1,6=6,7=1,11=2,25=1,30=1,71=1,74=-5/1,2,3;
 4//1;
 5/5=2,38=5/2;
 6/7=2,8=2,9=2,10=2,28=1/1;
 7//1,2,3,16;
 1/18=20,19=15,26=3/3(2);
 2/9=110/2;
 99//99;
 2/9=110/2;
 3/5=1,6=6,7=1,11=2,25=1,30=1,71=1,74=-5/1,2,3;
 4/5=5,16=3,69=1/1;
 5/5=2,38=5/2;
 7//1,2,3,16;
 1/18=20,19=15,26=3/3(-5);
 2/9=110/2;
 6/7=2,8=2,9=2,10=2,19=2,28=1/1;
 99/9=1/99;
 -----------------
 planar_chex_mode3
 -----------------
 Symbolic Z-matrix:
 Charge =  0 Multiplicity = 1
 C                     0.16786   1.54629   0.03956 
 C                     1.42313   0.62775  -0.02827 
 C                     1.25523  -0.91852  -0.00943 
 C                    -0.16788  -1.54629   0.03847 
 C                    -1.42312  -0.62777  -0.03039 
 C                    -1.25522   0.91853  -0.00994 
 H                     0.23607   2.14443   0.95875 
 H                     1.98487   0.88945  -0.93698 
 H                     1.77306  -1.31791  -0.88723 
 H                    -0.24288  -2.27639  -0.77868 
 H                    -1.98365  -0.8887   -0.94019 
 H                    -1.81647   1.30742   0.8483 
 H                    -1.77241   1.3187   -0.88778 
 H                    -2.08524  -0.90625   0.79584 
 H                     0.24077   2.27668  -0.7773 
 H                     2.08701   0.90552   0.79905 
 H                     1.81581  -1.30823   0.84885 
 H                    -0.23694  -2.14471   0.95738 
 

 GradGradGradGradGradGradGradGradGradGradGradGradGradGradGradGradGradGrad
 Berny optimization.
 Initialization pass.
                           ----------------------------
                           !    Initial Parameters    !
                           ! (Angstroms and Degrees)  !
 --------------------------                            --------------------------
 ! Name  Definition              Value          Derivative Info.                !
 --------------------------------------------------------------------------------
 ! R1    R(1,2)                  1.5569         estimate D2E/DX2                !
 ! R2    R(1,6)                  1.5562         estimate D2E/DX2                !
 ! R3    R(1,7)                  1.0988         estimate D2E/DX2                !
 ! R4    R(1,15)                 1.0982         estimate D2E/DX2                !
 ! R5    R(2,3)                  1.5555         estimate D2E/DX2                !
 ! R6    R(2,8)                  1.0999         estimate D2E/DX2                !
 ! R7    R(2,16)                 1.0965         estimate D2E/DX2                !
 ! R8    R(3,4)                  1.5562         estimate D2E/DX2                !
 ! R9    R(3,9)                  1.0946         estimate D2E/DX2                !
 ! R10   R(3,17)                 1.0967         estimate D2E/DX2                !
 ! R11   R(4,5)                  1.5569         estimate D2E/DX2                !
 ! R12   R(4,10)                 1.0984         estimate D2E/DX2                !
 ! R13   R(4,18)                 1.0988         estimate D2E/DX2                !
 ! R14   R(5,6)                  1.5555         estimate D2E/DX2                !
 ! R15   R(5,11)                 1.1            estimate D2E/DX2                !
 ! R16   R(5,14)                 1.0948         estimate D2E/DX2                !
 ! R17   R(6,12)                 1.0967         estimate D2E/DX2                !
 ! R18   R(6,13)                 1.0946         estimate D2E/DX2                !
 ! A1    A(2,1,6)              119.862          estimate D2E/DX2                !
 ! A2    A(2,1,7)              107.912          estimate D2E/DX2                !
 ! A3    A(2,1,15)             107.8448         estimate D2E/DX2                !
 ! A4    A(6,1,7)              107.6363         estimate D2E/DX2                !
 ! A5    A(6,1,15)             107.7789         estimate D2E/DX2                !
 ! A6    A(7,1,15)             104.8372         estimate D2E/DX2                !
 ! A7    A(1,2,3)              119.9291         estimate D2E/DX2                !
 ! A8    A(1,2,8)              107.9019         estimate D2E/DX2                !
 ! A9    A(1,2,16)             107.8076         estimate D2E/DX2                !
 ! A10   A(3,2,8)              107.5567         estimate D2E/DX2                !
 ! A11   A(3,2,16)             107.9408         estimate D2E/DX2                !
 ! A12   A(8,2,16)             104.7059         estimate D2E/DX2                !
 ! A13   A(2,3,4)              120.007          estimate D2E/DX2                !
 ! A14   A(2,3,9)              107.574          estimate D2E/DX2                !
 ! A15   A(2,3,17)             107.9116         estimate D2E/DX2                !
 ! A16   A(4,3,9)              108.0663         estimate D2E/DX2                !
 ! A17   A(4,3,17)             107.4576         estimate D2E/DX2                !
 ! A18   A(9,3,17)             104.8399         estimate D2E/DX2                !
 ! A19   A(3,4,5)              119.8636         estimate D2E/DX2                !
 ! A20   A(3,4,10)             107.9204         estimate D2E/DX2                !
 ! A21   A(3,4,18)             107.6341         estimate D2E/DX2                !
 ! A22   A(5,4,10)             107.7099         estimate D2E/DX2                !
 ! A23   A(5,4,18)             107.9164         estimate D2E/DX2                !
 ! A24   A(10,4,18)            104.8248         estimate D2E/DX2                !
 ! A25   A(4,5,6)              119.924          estimate D2E/DX2                !
 ! A26   A(4,5,11)             107.9069         estimate D2E/DX2                !
 ! A27   A(4,5,14)             107.7067         estimate D2E/DX2                !
 ! A28   A(6,5,11)             107.5581         estimate D2E/DX2                !
 ! A29   A(6,5,14)             107.9518         estimate D2E/DX2                !
 ! A30   A(11,5,14)            104.8133         estimate D2E/DX2                !
 ! A31   A(1,6,5)              120.0087         estimate D2E/DX2                !
 ! A32   A(1,6,12)             107.4606         estimate D2E/DX2                !
 ! A33   A(1,6,13)             108.0659         estimate D2E/DX2                !
 ! A34   A(5,6,12)             107.9105         estimate D2E/DX2                !
 ! A35   A(5,6,13)             107.5697         estimate D2E/DX2                !
 ! A36   A(12,6,13)            104.841          estimate D2E/DX2                !
 ! D1    D(6,1,2,3)             -5.7808         estimate D2E/DX2                !
 ! D2    D(6,1,2,8)            117.706          estimate D2E/DX2                !
 ! D3    D(6,1,2,16)          -129.715          estimate D2E/DX2                !
 ! D4    D(7,1,2,3)            117.7739         estimate D2E/DX2                !
 ! D5    D(7,1,2,8)           -118.7394         estimate D2E/DX2                !
 ! D6    D(7,1,2,16)            -6.1603         estimate D2E/DX2                !
 ! D7    D(15,1,2,3)          -129.4722         estimate D2E/DX2                !
 ! D8    D(15,1,2,8)            -5.9855         estimate D2E/DX2                !
 ! D9    D(15,1,2,16)          106.5936         estimate D2E/DX2                !
 ! D10   D(2,1,6,5)              4.1129         estimate D2E/DX2                !
 ! D11   D(2,1,6,12)           127.7517         estimate D2E/DX2                !
 ! D12   D(2,1,6,13)          -119.6024         estimate D2E/DX2                !
 ! D13   D(7,1,6,5)           -119.5747         estimate D2E/DX2                !
 ! D14   D(7,1,6,12)             4.0641         estimate D2E/DX2                !
 ! D15   D(7,1,6,13)           116.71           estimate D2E/DX2                !
 ! D16   D(15,1,6,5)           127.8361         estimate D2E/DX2                !
 ! D17   D(15,1,6,12)         -108.5251         estimate D2E/DX2                !
 ! D18   D(15,1,6,13)            4.1209         estimate D2E/DX2                !
 ! D19   D(1,2,3,4)              1.6452         estimate D2E/DX2                !
 ! D20   D(1,2,3,9)            125.6015         estimate D2E/DX2                !
 ! D21   D(1,2,3,17)          -121.7727         estimate D2E/DX2                !
 ! D22   D(8,2,3,4)           -122.0078         estimate D2E/DX2                !
 ! D23   D(8,2,3,9)              1.9484         estimate D2E/DX2                !
 ! D24   D(8,2,3,17)           114.5742         estimate D2E/DX2                !
 ! D25   D(16,2,3,4)           125.5155         estimate D2E/DX2                !
 ! D26   D(16,2,3,9)          -110.5282         estimate D2E/DX2                !
 ! D27   D(16,2,3,17)            2.0975         estimate D2E/DX2                !
 ! D28   D(2,3,4,5)              4.1576         estimate D2E/DX2                !
 ! D29   D(2,3,4,10)           127.823          estimate D2E/DX2                !
 ! D30   D(2,3,4,18)          -119.5354         estimate D2E/DX2                !
 ! D31   D(9,3,4,5)           -119.5627         estimate D2E/DX2                !
 ! D32   D(9,3,4,10)             4.1028         estimate D2E/DX2                !
 ! D33   D(9,3,4,18)           116.7444         estimate D2E/DX2                !
 ! D34   D(17,3,4,5)           127.7939         estimate D2E/DX2                !
 ! D35   D(17,3,4,10)         -108.5406         estimate D2E/DX2                !
 ! D36   D(17,3,4,18)            4.101          estimate D2E/DX2                !
 ! D37   D(3,4,5,6)             -5.8252         estimate D2E/DX2                !
 ! D38   D(3,4,5,11)           117.6641         estimate D2E/DX2                !
 ! D39   D(3,4,5,14)          -129.6791         estimate D2E/DX2                !
 ! D40   D(10,4,5,6)          -129.592          estimate D2E/DX2                !
 ! D41   D(10,4,5,11)           -6.1027         estimate D2E/DX2                !
 ! D42   D(10,4,5,14)          106.5541         estimate D2E/DX2                !
 ! D43   D(18,4,5,6)           117.7317         estimate D2E/DX2                !
 ! D44   D(18,4,5,11)         -118.779          estimate D2E/DX2                !
 ! D45   D(18,4,5,14)           -6.1222         estimate D2E/DX2                !
 ! D46   D(4,5,6,1)              1.6896         estimate D2E/DX2                !
 ! D47   D(4,5,6,12)          -121.7328         estimate D2E/DX2                !
 ! D48   D(4,5,6,13)           125.6427         estimate D2E/DX2                !
 ! D49   D(11,5,6,1)          -121.9678         estimate D2E/DX2                !
 ! D50   D(11,5,6,12)          114.6099         estimate D2E/DX2                !
 ! D51   D(11,5,6,13)            1.9854         estimate D2E/DX2                !
 ! D52   D(14,5,6,1)           125.4257         estimate D2E/DX2                !
 ! D53   D(14,5,6,12)            2.0033         estimate D2E/DX2                !
 ! D54   D(14,5,6,13)         -110.6212         estimate D2E/DX2                !
 --------------------------------------------------------------------------------
 Trust Radius=3.00D-01 FncErr=1.00D-07 GrdErr=1.00D-06 EigMax=2.50D+02 EigMin=1.00D-04
 Number of steps in this run=    108 maximum allowed number of steps=    108.
 GradGradGradGradGradGradGradGradGradGradGradGradGradGradGradGradGradGrad

                          Input orientation:                          
 ---------------------------------------------------------------------
 Center     Atomic      Atomic             Coordinates (Angstroms)
 Number     Number       Type             X           Y           Z
 ---------------------------------------------------------------------
      1          6           0        0.167858    1.546289    0.039560
      2          6           0        1.423125    0.627751   -0.028269
      3          6           0        1.255232   -0.918516   -0.009433
      4          6           0       -0.167879   -1.546289    0.038474
      5          6           0       -1.423119   -0.627769   -0.030390
      6          6           0       -1.255217    0.918533   -0.009943
      7          1           0        0.236066    2.144432    0.958748
      8          1           0        1.984865    0.889448   -0.936977
      9          1           0        1.773063   -1.317908   -0.887231
     10          1           0       -0.242877   -2.276395   -0.778675
     11          1           0       -1.983652   -0.888697   -0.940191
     12          1           0       -1.816467    1.307415    0.848295
     13          1           0       -1.772414    1.318704   -0.887780
     14          1           0       -2.085238   -0.906251    0.795842
     15          1           0        0.240772    2.276675   -0.777301
     16          1           0        2.087012    0.905520    0.799051
     17          1           0        1.815808   -1.308225    0.848845
     18          1           0       -0.236938   -2.144714    0.957376
 ---------------------------------------------------------------------
                    Distance matrix (angstroms):
                    1          2          3          4          5
     1  C    0.000000
     2  C    1.556923   0.000000
     3  C    2.694447   1.555469   0.000000
     4  C    3.110749   2.694847   1.556162   0.000000
     5  C    2.694927   3.110858   2.694167   1.556936   0.000000
     6  C    1.556172   2.694143   3.110804   2.694438   1.555525
     7  H    1.098787   2.164170   3.370122   3.825114   3.378814
     8  H    2.164851   1.099903   2.159036   3.393910   3.839037
     9  H    3.411634   2.155426   1.094620   2.162485   3.380244
    10  H    3.930792   3.431142   2.163307   1.098368   2.161219
    11  H    3.393827   3.838925   3.370099   2.165004   1.100008
    12  H    2.156075   3.424217   3.889190   3.393712   2.161422
    13  H    2.162501   3.380480   3.865655   3.411842   2.155431
    14  H    3.415166   3.916750   3.436184   2.158592   1.094812
    15  H    1.098199   2.162859   3.439185   3.930336   3.429607
    16  H    2.161149   1.096522   2.161622   3.416779   3.919179
    17  H    3.393955   2.161373   1.096704   2.156012   3.424430
    18  H    3.824886   3.378442   2.159827   1.098755   2.164216
                    6          7          8          9         10
     6  C    0.000000
     7  H    2.159888   0.000000
     8  H    3.370218   2.868285   0.000000
     9  H    3.865460   4.214000   2.218052   0.000000
    10  H    3.438509   4.774069   3.874333   2.234837   0.000000
    11  H    2.159180   4.211056   4.348671   3.781525   2.232060
    12  H    1.096724   2.219389   4.220429   4.773793   4.238739
    13  H    1.094636   2.850524   3.782040   4.418385   3.908468
    14  H    2.160570   3.836881   4.774195   4.229501   2.784007
    15  H    2.161335   1.741085   2.234224   3.909095   4.578686
    16  H    3.438769   2.233026   1.739105   2.808157   4.247609
    17  H    3.889365   3.798487   2.836813   1.736629   2.797205
    18  H    3.369878   4.315149   4.210834   2.850664   1.741048
                   11         12         13         14         15
    11  H    0.000000
    12  H    2.837171   0.000000
    13  H    2.218105   1.736671   0.000000
    14  H    1.739091   2.230539   2.807644   0.000000
    15  H    3.872231   2.795400   2.232226   4.244540   0.000000
    16  H    4.776451   3.924423   4.232173   4.548648   2.788109
    17  H    4.220492   4.476047   4.774093   3.922060   4.239882
    18  H    2.868684   3.797895   4.213971   2.230717   4.773467
                   16         17         18
    16  H    0.000000
    17  H    2.230851   0.000000
    18  H    3.837934   2.219292   0.000000
 This structure is nearly, but not quite of a higher symmetry.
 Consider Symm=Loose if the higher symmetry is desired.
 Stoichiometry    C6H12
 Framework group  C1[X(C6H12)]
 Deg. of freedom    48
 Full point group                 C1      NOp   1
 Largest Abelian subgroup         C1      NOp   1
 Largest concise Abelian subgroup C1      NOp   1
                         Standard orientation:                         
 ---------------------------------------------------------------------
 Center     Atomic      Atomic             Coordinates (Angstroms)
 Number     Number       Type             X           Y           Z
 ---------------------------------------------------------------------
      1          6           0       -0.001211   -1.555405    0.038273
      2          6           0       -1.347616   -0.776635   -0.030426
      3          6           0       -1.346433    0.778704   -0.010303
      4          6           0        0.001144    1.555343    0.039761
      5          6           0        1.347674    0.776701   -0.028232
      6          6           0        1.346442   -0.778706   -0.009072
      7          1           0       -0.005953   -2.158173    0.956958
      8          1           0       -1.877050   -1.096278   -0.939995
      9          1           0       -1.903099    1.121022   -0.888445
     10          1           0       -0.001621    2.289957   -0.776785
     11          1           0        1.878036    1.096953   -0.937173
     12          1           0        1.945172   -1.105906    0.849569
     13          1           0        1.904535   -1.120416   -0.886565
     14          1           0        1.975203    1.123858    0.798993
     15          1           0        0.005493   -2.288723   -0.779187
     16          1           0       -1.978839   -1.124640    0.795897
     17          1           0       -1.946513    1.105379    0.847571
     18          1           0        0.004635    2.156962    0.959165
 ---------------------------------------------------------------------
 Rotational constants (GHZ):           4.0035916           4.0031683           2.1595181
 Standard basis: 6-31G(d) (6D, 7F)
 There are   114 symmetry adapted cartesian basis functions of A   symmetry.
 There are   114 symmetry adapted basis functions of A   symmetry.
   114 basis functions,   216 primitive gaussians,   114 cartesian basis functions
    24 alpha electrons       24 beta electrons
       nuclear repulsion energy       247.8990630692 Hartrees.
 NAtoms=   18 NActive=   18 NUniq=   18 SFac= 1.00D+00 NAtFMM=   60 NAOKFM=F Big=F
 Integral buffers will be    131072 words long.
 Raffenetti 2 integral format.
 Two-electron integral symmetry is turned on.
 One-electron integrals computed using PRISM.
 NBasis=   114 RedAO= T EigKep=  2.43D-03  NBF=   114
 NBsUse=   114 1.00D-06 EigRej= -1.00D+00 NBFU=   114
 ExpMin= 1.61D-01 ExpMax= 3.05D+03 ExpMxC= 4.57D+02 IAcc=3 IRadAn=         5 AccDes= 0.00D+00
 Harris functional with IExCor=  402 and IRadAn=       5 diagonalized for initial guess.
 HarFok:  IExCor=  402 AccDes= 0.00D+00 IRadAn=         5 IDoV= 1 UseB2=F ITyADJ=14
 ICtDFT=  3500011 ScaDFX=  1.000000  1.000000  1.000000  1.000000
 FoFCou: FMM=F IPFlag=           0 FMFlag=      100000 FMFlg1=           0
         NFxFlg=           0 DoJE=T BraDBF=F KetDBF=T FulRan=T
         wScrn=  0.000000 ICntrl=       500 IOpCl=  0 I1Cent=   200000004 NGrid=           0
         NMat0=    1 NMatS0=      1 NMatT0=    0 NMatD0=    1 NMtDS0=    0 NMtDT0=    0
 Petite list used in FoFCou.
 Keep R1 ints in memory in canonical form, NReq=25245998.
 Requested convergence on RMS density matrix=1.00D-08 within 128 cycles.
 Requested convergence on MAX density matrix=1.00D-06.
 Requested convergence on             energy=1.00D-06.
 No special actions if energy rises.
 Integral accuracy reduced to 1.0D-05 until final iterations.
 Initial convergence to 1.0D-05 achieved.  Increase integral accuracy.
 SCF Done:  E(RB3LYP) =  -235.839689446     A.U. after   10 cycles
            NFock= 10  Conv=0.48D-08     -V/T= 2.0106

 **********************************************************************

            Population analysis using the SCF Density.

 **********************************************************************

 Orbital symmetries:
       Occupied  (A) (A) (A) (A) (A) (A) (A) (A) (A) (A) (A) (A)
                 (A) (A) (A) (A) (A) (A) (A) (A) (A) (A) (A) (A)
       Virtual   (A) (A) (A) (A) (A) (A) (A) (A) (A) (A) (A) (A)
                 (A) (A) (A) (A) (A) (A) (A) (A) (A) (A) (A) (A)
                 (A) (A) (A) (A) (A) (A) (A) (A) (A) (A) (A) (A)
                 (A) (A) (A) (A) (A) (A) (A) (A) (A) (A) (A) (A)
                 (A) (A) (A) (A) (A) (A) (A) (A) (A) (A) (A) (A)
                 (A) (A) (A) (A) (A) (A) (A) (A) (A) (A) (A) (A)
                 (A) (A) (A) (A) (A) (A) (A) (A) (A) (A) (A) (A)
                 (A) (A) (A) (A) (A) (A)
 The electronic state is 1-A.
 Alpha  occ. eigenvalues --  -10.17373 -10.17369 -10.17351 -10.17334 -10.17292
 Alpha  occ. eigenvalues --  -10.17289  -0.79954  -0.73020  -0.72955  -0.60664
 Alpha  occ. eigenvalues --   -0.60654  -0.49919  -0.47216  -0.44972  -0.42416
 Alpha  occ. eigenvalues --   -0.42311  -0.38385  -0.35044  -0.35032  -0.32942
 Alpha  occ. eigenvalues --   -0.32926  -0.29612  -0.29585  -0.27451
 Alpha virt. eigenvalues --    0.07137   0.08170   0.12071   0.12083   0.14662
 Alpha virt. eigenvalues --    0.14671   0.15904   0.15958   0.22966   0.22976
 Alpha virt. eigenvalues --    0.23119   0.23456   0.23560   0.24389   0.24595
 Alpha virt. eigenvalues --    0.30199   0.37486   0.43213   0.49165   0.51881
 Alpha virt. eigenvalues --    0.53132   0.62946   0.62964   0.63712   0.63741
 Alpha virt. eigenvalues --    0.68943   0.69871   0.70057   0.71137   0.71252
 Alpha virt. eigenvalues --    0.74485   0.74565   0.77904   0.77973   0.83904
 Alpha virt. eigenvalues --    0.84535   0.87515   0.88930   0.88951   0.89226
 Alpha virt. eigenvalues --    0.89381   0.90109   0.92707   0.92755   0.96565
 Alpha virt. eigenvalues --    0.97117   0.97324   0.99347   1.23787   1.24207
 Alpha virt. eigenvalues --    1.28276   1.41355   1.52747   1.60065   1.60870
 Alpha virt. eigenvalues --    1.61336   1.62227   1.67520   1.81299   1.81583
 Alpha virt. eigenvalues --    1.86140   1.86243   1.88148   2.05337   2.05419
 Alpha virt. eigenvalues --    2.09125   2.10205   2.10278   2.14846   2.18282
 Alpha virt. eigenvalues --    2.19568   2.20634   2.20752   2.33824   2.38161
 Alpha virt. eigenvalues --    2.38405   2.38846   2.52822   2.53317   2.58935
 Alpha virt. eigenvalues --    2.59048   2.69069   2.86318   2.86931   4.02027
 Alpha virt. eigenvalues --    4.25789   4.25840   4.47337   4.47583   4.72089
          Condensed to atoms (all electrons):
               1          2          3          4          5          6
     1  C    4.992603   0.366898  -0.035115  -0.014249  -0.034967   0.366755
     2  C    0.366898   4.993096   0.366643  -0.034954  -0.014266  -0.035179
     3  C   -0.035115   0.366643   4.992817   0.366788  -0.035192  -0.014328
     4  C   -0.014249  -0.034954   0.366788   4.992848   0.366901  -0.035108
     5  C   -0.034967  -0.014266  -0.035192   0.366901   4.992861   0.366689
     6  C    0.366755  -0.035179  -0.014328  -0.035108   0.366689   4.993099
     7  H    0.382388  -0.037590   0.002184   0.000438   0.002291  -0.037653
     8  H   -0.037601   0.382150  -0.037422   0.002428   0.000420   0.002203
     9  H    0.002653  -0.036850   0.382490  -0.037371   0.002334   0.000388
    10  H    0.000328   0.002833  -0.036488   0.381087  -0.036233   0.002922
    11  H    0.002430   0.000420   0.002200  -0.037599   0.382249  -0.037414
    12  H   -0.036626   0.002801   0.000366   0.002501  -0.037370   0.382011
    13  H   -0.037394   0.002334   0.000389   0.002650  -0.036839   0.382538
    14  H    0.002719   0.000340   0.002911  -0.036187   0.381648  -0.036908
    15  H    0.381128  -0.036082   0.002912   0.000329   0.002841  -0.036676
    16  H   -0.036037   0.381467  -0.036925   0.002712   0.000338   0.002895
    17  H    0.002496  -0.037374   0.382035  -0.036604   0.002801   0.000367
    18  H    0.000438   0.002290  -0.037684   0.382424  -0.037613   0.002183
               7          8          9         10         11         12
     1  C    0.382388  -0.037601   0.002653   0.000328   0.002430  -0.036626
     2  C   -0.037590   0.382150  -0.036850   0.002833   0.000420   0.002801
     3  C    0.002184  -0.037422   0.382490  -0.036488   0.002200   0.000366
     4  C    0.000438   0.002428  -0.037371   0.381087  -0.037599   0.002501
     5  C    0.002291   0.000420   0.002334  -0.036233   0.382249  -0.037370
     6  C   -0.037653   0.002203   0.000388   0.002922  -0.037414   0.382011
     7  H    0.613291   0.005356  -0.000131   0.000011  -0.000133  -0.013949
     8  H    0.005356   0.613829  -0.013998  -0.000028  -0.000040  -0.000128
     9  H   -0.000131  -0.013998   0.611012  -0.013600   0.000055   0.000012
    10  H    0.000011  -0.000028  -0.013600   0.611003  -0.013655  -0.000123
    11  H   -0.000133  -0.000040   0.000055  -0.013655   0.613754   0.005206
    12  H   -0.013949  -0.000128   0.000012  -0.000123   0.005206   0.611924
    13  H    0.005303   0.000055  -0.000029  -0.000054  -0.013981  -0.042155
    14  H   -0.000002   0.000011  -0.000125   0.004669  -0.042064  -0.013753
    15  H   -0.041961  -0.013614  -0.000053  -0.000014  -0.000028   0.004838
    16  H   -0.013572  -0.042162   0.004987  -0.000121   0.000011  -0.000062
    17  H    0.000036   0.005209  -0.042147   0.004817  -0.000128  -0.000023
    18  H   -0.000046  -0.000133   0.005305  -0.041984   0.005359   0.000037
              13         14         15         16         17         18
     1  C   -0.037394   0.002719   0.381128  -0.036037   0.002496   0.000438
     2  C    0.002334   0.000340  -0.036082   0.381467  -0.037374   0.002290
     3  C    0.000389   0.002911   0.002912  -0.036925   0.382035  -0.037684
     4  C    0.002650  -0.036187   0.000329   0.002712  -0.036604   0.382424
     5  C   -0.036839   0.381648   0.002841   0.000338   0.002801  -0.037613
     6  C    0.382538  -0.036908  -0.036676   0.002895   0.000367   0.002183
     7  H    0.005303  -0.000002  -0.041961  -0.013572   0.000036  -0.000046
     8  H    0.000055   0.000011  -0.013614  -0.042162   0.005209  -0.000133
     9  H   -0.000029  -0.000125  -0.000053   0.004987  -0.042147   0.005305
    10  H   -0.000054   0.004669  -0.000014  -0.000121   0.004817  -0.041984
    11  H   -0.013981  -0.042064  -0.000028   0.000011  -0.000128   0.005359
    12  H   -0.042155  -0.013753   0.004838  -0.000062  -0.000023   0.000037
    13  H    0.611071   0.004982  -0.013647  -0.000124   0.000012  -0.000131
    14  H    0.004982   0.610161  -0.000122  -0.000016  -0.000063  -0.013606
    15  H   -0.013647  -0.000122   0.610928   0.004647  -0.000123   0.000011
    16  H   -0.000124  -0.000016   0.004647   0.610695  -0.013756  -0.000002
    17  H    0.000012  -0.000063  -0.000123  -0.013756   0.611845  -0.013940
    18  H   -0.000131  -0.013606   0.000011  -0.000002  -0.013940   0.613404
 Mulliken charges:
               1
     1  C   -0.268847
     2  C   -0.268976
     3  C   -0.268581
     4  C   -0.269035
     5  C   -0.268894
     6  C   -0.268784
     7  H    0.133738
     8  H    0.133464
     9  H    0.135068
    10  H    0.134629
    11  H    0.133359
    12  H    0.134494
    13  H    0.135020
    14  H    0.135405
    15  H    0.134686
    16  H    0.135024
    17  H    0.134541
    18  H    0.133689
 Sum of Mulliken charges =  -0.00000
 Mulliken charges with hydrogens summed into heavy atoms:
               1
     1  C   -0.000423
     2  C   -0.000488
     3  C    0.001028
     4  C   -0.000717
     5  C   -0.000130
     6  C    0.000730
 Electronic spatial extent (au):  <R**2>=            643.8130
 Charge=              0.0000 electrons
 Dipole moment (field-independent basis, Debye):
    X=              0.0008    Y=              0.0004    Z=              0.0021  Tot=              0.0023
 Quadrupole moment (field-independent basis, Debye-Ang):
   XX=            -39.9323   YY=            -39.9652   ZZ=            -38.7192
   XY=             -0.0162   XZ=             -0.0017   YZ=              0.0015
 Traceless Quadrupole moment (field-independent basis, Debye-Ang):
   XX=             -0.3934   YY=             -0.4263   ZZ=              0.8197
   XY=             -0.0162   XZ=             -0.0017   YZ=              0.0015
 Octapole moment (field-independent basis, Debye-Ang**2):
  XXX=             -0.0080  YYY=              0.0036  ZZZ=              0.0084  XYY=              0.0138
  XXY=              0.0006  XXZ=              0.2516  XZZ=              0.0076  YZZ=              0.0031
  YYZ=             -0.2498  XYZ=              0.0955
 Hexadecapole moment (field-independent basis, Debye-Ang**3):
 XXXX=           -406.6723 YYYY=           -406.9234 ZZZZ=            -80.2088 XXXY=             -0.0064
 XXXZ=             -0.1033 YYYX=             -0.1231 YYYZ=             -0.0685 ZZZX=             -0.0773
 ZZZY=             -0.0549 XXYY=           -135.6714 XXZZ=            -75.9819 YYZZ=            -76.0704
 XXYZ=             -0.0197 YYXZ=             -0.0414 ZZXY=             -0.0558
 N-N= 2.478990630692D+02 E-N=-1.040505268096D+03  KE= 2.333726710412D+02
 Calling FoFJK, ICntrl=      2127 FMM=F ISym2X=0 I1Cent= 0 IOpClX= 0 NMat=1 NMatS=1 NMatT=0.
 ***** Axes restored to original set *****
 -------------------------------------------------------------------
 Center     Atomic                   Forces (Hartrees/Bohr)
 Number     Number              X              Y              Z
 -------------------------------------------------------------------
      1        6           0.000427197    0.001162905    0.002265769
      2        6           0.001030101    0.001358717   -0.003551291
      3        6          -0.000074726   -0.000350240    0.000886283
      4        6          -0.000581069   -0.001190158    0.002089322
      5        6          -0.000313187   -0.001018135   -0.004128385
      6        6           0.000014077    0.000207936    0.000987247
      7        1           0.000094164   -0.001469141   -0.001406308
      8        1          -0.001733254   -0.000574294    0.001911544
      9        1           0.000021398   -0.000230325   -0.000504049
     10        1           0.000166958    0.000970358    0.001758774
     11        1           0.001710533    0.000568742    0.002042175
     12        1           0.000239452   -0.000207984   -0.000758409
     13        1          -0.000008012    0.000229267   -0.000485595
     14        1          -0.000311128   -0.000276912   -0.000000556
     15        1           0.000191580   -0.000935824    0.001691806
     16        1          -0.000519341    0.000079307   -0.000667685
     17        1          -0.000250275    0.000199950   -0.000756847
     18        1          -0.000104470    0.001475830   -0.001373796
 -------------------------------------------------------------------
 Cartesian Forces:  Max     0.004128385 RMS     0.001230221

 GradGradGradGradGradGradGradGradGradGradGradGradGradGradGradGradGradGrad
 Berny optimization.
 FormGI is forming the generalized inverse of G from B-inverse, IUseBI=4.
 Internal  Forces:  Max     0.002695602 RMS     0.000644201
 Search for a local minimum.
 Step number   1 out of a maximum of  108
 All quantities printed in internal units (Hartrees-Bohrs-Radians)
 Mixed Optimization -- En-DIIS/RFO-DIIS
 Second derivative matrix not updated -- first step.
 ITU=  0
     Eigenvalues ---    0.00230   0.00231   0.00233   0.01555   0.01559
     Eigenvalues ---    0.02746   0.02751   0.02754   0.02762   0.04569
     Eigenvalues ---    0.04570   0.04571   0.04919   0.04922   0.04967
     Eigenvalues ---    0.07536   0.09525   0.09526   0.09536   0.09542
     Eigenvalues ---    0.09549   0.09549   0.10338   0.10342   0.13032
     Eigenvalues ---    0.13036   0.13041   0.21942   0.21981   0.21998
     Eigenvalues ---    0.26333   0.26393   0.27060   0.27129   0.27134
     Eigenvalues ---    0.27188   0.33681   0.33693   0.33817   0.33820
     Eigenvalues ---    0.33863   0.33882   0.34047   0.34049   0.34070
     Eigenvalues ---    0.34262   0.34282   0.34284
 RFO step:  Lambda=-1.37824679D-03 EMin= 2.30000027D-03
 Linear search not attempted -- first point.
 Iteration  1 RMS(Cart)=  0.05810947 RMS(Int)=  0.00166595
 Iteration  2 RMS(Cart)=  0.00217763 RMS(Int)=  0.00048251
 Iteration  3 RMS(Cart)=  0.00000140 RMS(Int)=  0.00048250
 Iteration  4 RMS(Cart)=  0.00000000 RMS(Int)=  0.00048250
 Variable       Old X    -DE/DX   Delta X   Delta X   Delta X     New X
                                 (Linear)    (Quad)   (Total)
    R1        2.94216  -0.00135   0.00000  -0.00496  -0.00497   2.93719
    R2        2.94074  -0.00044   0.00000  -0.00163  -0.00162   2.93912
    R3        2.07641  -0.00197   0.00000  -0.00580  -0.00580   2.07060
    R4        2.07530  -0.00187   0.00000  -0.00549  -0.00549   2.06981
    R5        2.93941  -0.00007   0.00000  -0.00024  -0.00023   2.93918
    R6        2.07852  -0.00260   0.00000  -0.00769  -0.00769   2.07083
    R7        2.07213  -0.00080   0.00000  -0.00233  -0.00233   2.06979
    R8        2.94072  -0.00055   0.00000  -0.00200  -0.00199   2.93872
    R9        2.06853   0.00050   0.00000   0.00145   0.00145   2.06998
   R10        2.07247  -0.00079   0.00000  -0.00231  -0.00231   2.07016
   R11        2.94218  -0.00118   0.00000  -0.00437  -0.00438   2.93780
   R12        2.07561  -0.00196   0.00000  -0.00578  -0.00578   2.06984
   R13        2.07635  -0.00195   0.00000  -0.00573  -0.00573   2.07061
   R14        2.93952  -0.00009   0.00000  -0.00035  -0.00035   2.93917
   R15        2.07871  -0.00270   0.00000  -0.00797  -0.00797   2.07074
   R16        2.06889   0.00026   0.00000   0.00075   0.00075   2.06965
   R17        2.07251  -0.00079   0.00000  -0.00231  -0.00231   2.07020
   R18        2.06856   0.00048   0.00000   0.00139   0.00139   2.06995
    A1        2.09199   0.00015   0.00000  -0.00190  -0.00363   2.08836
    A2        1.88342  -0.00011   0.00000   0.00433   0.00478   1.88820
    A3        1.88225  -0.00034   0.00000  -0.00711  -0.00658   1.87567
    A4        1.87861   0.00039   0.00000   0.00895   0.00948   1.88809
    A5        1.88110  -0.00012   0.00000  -0.00428  -0.00382   1.87728
    A6        1.82975   0.00002   0.00000   0.00028   0.00007   1.82982
    A7        2.09316   0.00006   0.00000  -0.00266  -0.00439   2.08876
    A8        1.88324  -0.00016   0.00000   0.00353   0.00401   1.88725
    A9        1.88160  -0.00023   0.00000  -0.00621  -0.00569   1.87591
   A10        1.87722   0.00044   0.00000   0.00871   0.00925   1.88646
   A11        1.88392  -0.00019   0.00000  -0.00483  -0.00437   1.87956
   A12        1.82746   0.00009   0.00000   0.00215   0.00194   1.82940
   A13        2.09452  -0.00026   0.00000  -0.00388  -0.00557   2.08895
   A14        1.87752   0.00046   0.00000   0.00396   0.00442   1.88194
   A15        1.88341  -0.00020   0.00000  -0.00108  -0.00051   1.88290
   A16        1.88611  -0.00027   0.00000  -0.00171  -0.00115   1.88497
   A17        1.87549   0.00034   0.00000   0.00274   0.00321   1.87870
   A18        1.82980  -0.00005   0.00000   0.00045   0.00022   1.83002
   A19        2.09202   0.00017   0.00000  -0.00190  -0.00363   2.08839
   A20        1.88357  -0.00038   0.00000  -0.00674  -0.00627   1.87730
   A21        1.87857   0.00041   0.00000   0.00899   0.00952   1.88809
   A22        1.87989  -0.00008   0.00000  -0.00468  -0.00416   1.87573
   A23        1.88350  -0.00016   0.00000   0.00417   0.00463   1.88812
   A24        1.82954   0.00003   0.00000   0.00045   0.00024   1.82978
   A25        2.09307  -0.00001   0.00000  -0.00284  -0.00457   2.08850
   A26        1.88333  -0.00014   0.00000   0.00326   0.00374   1.88707
   A27        1.87984  -0.00008   0.00000  -0.00423  -0.00370   1.87613
   A28        1.87724   0.00044   0.00000   0.00840   0.00893   1.88617
   A29        1.88411  -0.00022   0.00000  -0.00484  -0.00436   1.87975
   A30        1.82934   0.00001   0.00000   0.00070   0.00049   1.82982
   A31        2.09455  -0.00024   0.00000  -0.00385  -0.00554   2.08900
   A32        1.87554   0.00036   0.00000   0.00295   0.00341   1.87896
   A33        1.88611  -0.00029   0.00000  -0.00187  -0.00130   1.88480
   A34        1.88339  -0.00020   0.00000  -0.00109  -0.00051   1.88288
   A35        1.87745   0.00044   0.00000   0.00392   0.00438   1.88182
   A36        1.82982  -0.00005   0.00000   0.00042   0.00019   1.83001
    D1       -0.10089  -0.00102   0.00000  -0.12312  -0.12306  -0.22395
    D2        2.05436  -0.00051   0.00000  -0.10989  -0.10999   1.94437
    D3       -2.26395  -0.00059   0.00000  -0.10871  -0.10858  -2.37254
    D4        2.05554  -0.00046   0.00000  -0.10826  -0.10836   1.94718
    D5       -2.07239   0.00005   0.00000  -0.09503  -0.09529  -2.16768
    D6       -0.10752  -0.00003   0.00000  -0.09385  -0.09388  -0.20140
    D7       -2.25972  -0.00066   0.00000  -0.10929  -0.10918  -2.36890
    D8       -0.10447  -0.00015   0.00000  -0.09606  -0.09611  -0.20057
    D9        1.86041  -0.00023   0.00000  -0.09488  -0.09470   1.76571
   D10        0.07178   0.00061   0.00000   0.08259   0.08247   0.15425
   D11        2.22969   0.00048   0.00000   0.08082   0.08061   2.31030
   D12       -2.08745   0.00046   0.00000   0.08184   0.08186  -2.00559
   D13       -2.08697   0.00030   0.00000   0.06998   0.07003  -2.01694
   D14        0.07093   0.00017   0.00000   0.06820   0.06818   0.13911
   D15        2.03697   0.00015   0.00000   0.06922   0.06943   2.10640
   D16        2.23116   0.00015   0.00000   0.06741   0.06724   2.29841
   D17       -1.89412   0.00002   0.00000   0.06563   0.06539  -1.82873
   D18        0.07192  -0.00000   0.00000   0.06665   0.06664   0.13856
   D19        0.02871   0.00042   0.00000   0.04048   0.04039   0.06910
   D20        2.19216   0.00026   0.00000   0.03871   0.03852   2.23068
   D21       -2.12534   0.00033   0.00000   0.04063   0.04067  -2.08467
   D22       -2.12944   0.00019   0.00000   0.02976   0.02984  -2.09960
   D23        0.03401   0.00004   0.00000   0.02800   0.02797   0.06198
   D24        1.99970   0.00011   0.00000   0.02991   0.03012   2.02982
   D25        2.19066  -0.00003   0.00000   0.02539   0.02525   2.21591
   D26       -1.92908  -0.00019   0.00000   0.02363   0.02339  -1.90570
   D27        0.03661  -0.00012   0.00000   0.02554   0.02553   0.06214
   D28        0.07256   0.00060   0.00000   0.08257   0.08245   0.15502
   D29        2.23093   0.00027   0.00000   0.06851   0.06836   2.29930
   D30       -2.08629   0.00032   0.00000   0.07014   0.07020  -2.01609
   D31       -2.08676   0.00041   0.00000   0.08163   0.08166  -2.00510
   D32        0.07161   0.00008   0.00000   0.06757   0.06757   0.13918
   D33        2.03757   0.00013   0.00000   0.06920   0.06940   2.10698
   D34        2.23042   0.00043   0.00000   0.08060   0.08040   2.31082
   D35       -1.89439   0.00010   0.00000   0.06654   0.06631  -1.82808
   D36        0.07158   0.00015   0.00000   0.06817   0.06814   0.13972
   D37       -0.10167  -0.00100   0.00000  -0.12308  -0.12302  -0.22469
   D38        2.05363  -0.00053   0.00000  -0.11067  -0.11077   1.94285
   D39       -2.26333  -0.00063   0.00000  -0.11034  -0.11021  -2.37354
   D40       -2.26181  -0.00053   0.00000  -0.10805  -0.10793  -2.36973
   D41       -0.10651  -0.00006   0.00000  -0.09564  -0.09568  -0.20219
   D42        1.85972  -0.00015   0.00000  -0.09531  -0.09512   1.76460
   D43        2.05481  -0.00045   0.00000  -0.10831  -0.10841   1.94640
   D44       -2.07308   0.00002   0.00000  -0.09590  -0.09616  -2.16924
   D45       -0.10685  -0.00007   0.00000  -0.09557  -0.09560  -0.20245
   D46        0.02949   0.00040   0.00000   0.04044   0.04035   0.06984
   D47       -2.12464   0.00027   0.00000   0.04029   0.04033  -2.08431
   D48        2.19288   0.00020   0.00000   0.03844   0.03824   2.23112
   D49       -2.12874   0.00021   0.00000   0.03052   0.03060  -2.09814
   D50        2.00032   0.00007   0.00000   0.03037   0.03058   2.03090
   D51        0.03465   0.00001   0.00000   0.02852   0.02849   0.06315
   D52        2.18909   0.00009   0.00000   0.02796   0.02783   2.21692
   D53        0.03496  -0.00004   0.00000   0.02782   0.02781   0.06277
   D54       -1.93070  -0.00011   0.00000   0.02597   0.02572  -1.90498
         Item               Value     Threshold  Converged?
 Maximum Force            0.002696     0.000450     NO 
 RMS     Force            0.000644     0.000300     NO 
 Maximum Displacement     0.198903     0.001800     NO 
 RMS     Displacement     0.058172     0.001200     NO 
 Predicted change in Energy=-8.942092D-04
 GradGradGradGradGradGradGradGradGradGradGradGradGradGradGradGradGradGrad

                          Input orientation:                          
 ---------------------------------------------------------------------
 Center     Atomic      Atomic             Coordinates (Angstroms)
 Number     Number       Type             X           Y           Z
 ---------------------------------------------------------------------
      1          6           0        0.168173    1.539064    0.085743
      2          6           0        1.418099    0.627619   -0.065190
      3          6           0        1.253944   -0.918352   -0.019073
      4          6           0       -0.168100   -1.539140    0.084707
      5          6           0       -1.418277   -0.627591   -0.066854
      6          6           0       -1.254033    0.918319   -0.019177
      7          1           0        0.241917    2.064624    1.044359
      8          1           0        1.919139    0.888673   -1.004159
      9          1           0        1.740672   -1.333941   -0.908034
     10          1           0       -0.241204   -2.326289   -0.673420
     11          1           0       -1.917628   -0.887504   -1.006987
     12          1           0       -1.843339    1.293324    0.824750
     13          1           0       -1.740165    1.334651   -0.908095
     14          1           0       -2.129437   -0.911231    0.716270
     15          1           0        0.241869    2.326307   -0.672205
     16          1           0        2.128225    0.910466    0.719267
     17          1           0        1.842632   -1.294107    0.824924
     18          1           0       -0.242486   -2.064889    1.043175
 ---------------------------------------------------------------------
                    Distance matrix (angstroms):
                    1          2          3          4          5
     1  C    0.000000
     2  C    1.554293   0.000000
     3  C    2.688639   1.555346   0.000000
     4  C    3.096517   2.689487   1.555106   0.000000
     5  C    2.689703   3.101706   2.688417   1.554618   0.000000
     6  C    1.555314   2.688292   3.108586   2.688708   1.555341
     7  H    1.095717   2.163212   3.324640   3.751821   3.352470
     8  H    2.162586   1.095835   2.162920   3.381786   3.783642
     9  H    3.422645   2.159203   1.095386   2.161261   3.344469
    10  H    3.960413   3.442209   2.155440   1.095310   2.153833
    11  H    3.381251   3.782810   3.322016   2.162701   1.095791
    12  H    2.157012   3.445596   3.898296   3.372973   2.159989
    13  H    2.161308   3.344401   3.851114   3.422824   2.159095
    14  H    3.417677   3.945091   3.462375   2.154063   1.095209
    15  H    1.095294   2.153492   3.461025   3.960135   3.442099
    16  H    2.153669   1.095287   2.157334   3.417067   3.944779
    17  H    3.372989   2.159990   1.095479   2.156618   3.445727
    18  H    3.751505   3.351957   2.163843   1.095722   2.163441
                    6          7          8          9         10
     6  C    0.000000
     7  H    2.164021   0.000000
     8  H    3.322663   2.896957   0.000000
     9  H    3.851104   4.196230   2.231839   0.000000
    10  H    3.461407   4.739650   3.887474   2.228819   0.000000
    11  H    2.162667   4.193652   4.227954   3.686767   2.234225
    12  H    1.095501   2.234149   4.202962   4.769717   4.232369
    13  H    1.095369   2.876384   3.687633   4.386070   3.962883
    14  H    2.157421   3.819250   4.752946   4.218387   2.738439
    15  H    2.155597   1.736395   2.233880   3.962252   4.677607
    16  H    3.461940   2.235156   1.736199   2.799227   4.246217
    17  H    3.898290   3.727132   2.848846   1.736411   2.766371
    18  H    3.324357   4.157827   4.193773   2.876529   1.736385
                   11         12         13         14         15
    11  H    0.000000
    12  H    2.848999   0.000000
    13  H    2.231423   1.736406   0.000000
    14  H    1.736387   2.225687   2.798943   0.000000
    15  H    3.886398   2.766951   2.228785   4.246481   0.000000
    16  H    4.752007   3.991369   4.218137   4.631012   2.738455
    17  H    4.202472   4.503463   4.769713   3.991958   4.232166
    18  H    2.897499   3.726666   4.196115   2.235706   4.739170
                   16         17         18
    16  H    0.000000
    17  H    2.225504   0.000000
    18  H    3.818105   2.233709   0.000000
 Stoichiometry    C6H12
 Framework group  C1[X(C6H12)]
 Deg. of freedom    48
 Full point group                 C1      NOp   1
 Largest Abelian subgroup         C1      NOp   1
 Largest concise Abelian subgroup C1      NOp   1
                         Standard orientation:                         
 ---------------------------------------------------------------------
 Center     Atomic      Atomic             Coordinates (Angstroms)
 Number     Number       Type             X           Y           Z
 ---------------------------------------------------------------------
      1          6           0        0.371294   -1.503089    0.085125
      2          6           0       -1.115793   -1.076979   -0.065971
      3          6           0       -1.493283    0.431139   -0.019251
      4          6           0       -0.371462    1.503027    0.085292
      5          6           0        1.115970    1.077045   -0.066106
      6          6           0        1.493333   -0.431089   -0.019031
      7          1           0        0.482544   -2.022397    1.043529
      8          1           0       -1.496280   -1.493977   -1.005223
      9          1           0       -2.093024    0.654417   -0.908255
     10          1           0       -0.573315    2.267659   -0.672532
     11          1           0        1.495716    1.493255   -1.005956
     12          1           0        2.175451   -0.580964    0.824992
     13          1           0        2.093199   -0.654453   -0.907907
     14          1           0        1.686033    1.587578    0.717390
     15          1           0        0.572990   -2.267315   -0.673126
     16          1           0       -1.685537   -1.587133    0.718114
     17          1           0       -2.175487    0.581154    0.824649
     18          1           0       -0.482637    2.021852    1.043972
 ---------------------------------------------------------------------
 Rotational constants (GHZ):           4.0188924           4.0121813           2.1718080
 Standard basis: 6-31G(d) (6D, 7F)
 There are   114 symmetry adapted cartesian basis functions of A   symmetry.
 There are   114 symmetry adapted basis functions of A   symmetry.
   114 basis functions,   216 primitive gaussians,   114 cartesian basis functions
    24 alpha electrons       24 beta electrons
       nuclear repulsion energy       248.2875381522 Hartrees.
 NAtoms=   18 NActive=   18 NUniq=   18 SFac= 1.00D+00 NAtFMM=   60 NAOKFM=F Big=F
 Integral buffers will be    131072 words long.
 Raffenetti 2 integral format.
 Two-electron integral symmetry is turned on.
 One-electron integrals computed using PRISM.
 NBasis=   114 RedAO= T EigKep=  2.46D-03  NBF=   114
 NBsUse=   114 1.00D-06 EigRej= -1.00D+00 NBFU=   114
 Initial guess from the checkpoint file:  "planar_chex_mode3.chk"
 B after Tr=    -0.000000   -0.000000    0.000000
         Rot=    0.992586    0.000258   -0.000325   -0.121541 Ang=  13.96 deg.
 ExpMin= 1.61D-01 ExpMax= 3.05D+03 ExpMxC= 4.57D+02 IAcc=3 IRadAn=         5 AccDes= 0.00D+00
 Harris functional with IExCor=  402 and IRadAn=       5 diagonalized for initial guess.
 HarFok:  IExCor=  402 AccDes= 0.00D+00 IRadAn=         5 IDoV= 1 UseB2=F ITyADJ=14
 ICtDFT=  3500011 ScaDFX=  1.000000  1.000000  1.000000  1.000000
 FoFCou: FMM=F IPFlag=           0 FMFlag=      100000 FMFlg1=           0
         NFxFlg=           0 DoJE=T BraDBF=F KetDBF=T FulRan=T
         wScrn=  0.000000 ICntrl=       500 IOpCl=  0 I1Cent=   200000004 NGrid=           0
         NMat0=    1 NMatS0=      1 NMatT0=    0 NMatD0=    1 NMtDS0=    0 NMtDT0=    0
 Petite list used in FoFCou.
 Keep R1 ints in memory in canonical form, NReq=25245998.
 Requested convergence on RMS density matrix=1.00D-08 within 128 cycles.
 Requested convergence on MAX density matrix=1.00D-06.
 Requested convergence on             energy=1.00D-06.
 No special actions if energy rises.
 Integral accuracy reduced to 1.0D-05 until final iterations.
 Initial convergence to 1.0D-05 achieved.  Increase integral accuracy.
 SCF Done:  E(RB3LYP) =  -235.841580207     A.U. after    9 cycles
            NFock=  9  Conv=0.86D-08     -V/T= 2.0104
 Calling FoFJK, ICntrl=      2127 FMM=F ISym2X=0 I1Cent= 0 IOpClX= 0 NMat=1 NMatS=1 NMatT=0.
 ***** Axes restored to original set *****
 -------------------------------------------------------------------
 Center     Atomic                   Forces (Hartrees/Bohr)
 Number     Number              X              Y              Z
 -------------------------------------------------------------------
      1        6          -0.000040338   -0.000573363    0.001925577
      2        6          -0.000333508    0.000212598   -0.001581293
      3        6          -0.000274912   -0.000030967   -0.000344690
      4        6          -0.000156338    0.000591903    0.001950146
      5        6           0.000562292   -0.000236016   -0.001669780
      6        6           0.000313828    0.000061943   -0.000315680
      7        1          -0.000313856   -0.001250704    0.000882956
      8        1          -0.000804301   -0.000773835   -0.000665602
      9        1           0.000185134    0.000606680   -0.000370186
     10        1          -0.000370428   -0.000971228    0.000893123
     11        1           0.000768699    0.000735576   -0.000663093
     12        1           0.000242917    0.000707885   -0.000127065
     13        1          -0.000197258   -0.000595014   -0.000369886
     14        1          -0.000559918   -0.000836012   -0.000585516
     15        1           0.000345636    0.000983534    0.000890421
     16        1           0.000540315    0.000811233   -0.000604872
     17        1          -0.000208723   -0.000699038   -0.000130908
     18        1           0.000300761    0.001254826    0.000886348
 -------------------------------------------------------------------
 Cartesian Forces:  Max     0.001950146 RMS     0.000760209

 GradGradGradGradGradGradGradGradGradGradGradGradGradGradGradGradGradGrad
 Berny optimization.
 Using GEDIIS/GDIIS optimizer.
 FormGI is forming the generalized inverse of G from B-inverse, IUseBI=4.
 Internal  Forces:  Max     0.001124180 RMS     0.000435047
 Search for a local minimum.
 Step number   2 out of a maximum of  108
 All quantities printed in internal units (Hartrees-Bohrs-Radians)
 Mixed Optimization -- En-DIIS/RFO-DIIS
 Swapping is turned off.
 Update second derivatives using D2CorX and points    1    2
 DE= -1.89D-03 DEPred=-8.94D-04 R= 2.11D+00
 TightC=F SS=  1.41D+00  RLast= 5.60D-01 DXNew= 5.0454D-01 1.6806D+00
 Trust test= 2.11D+00 RLast= 5.60D-01 DXMaxT set to 5.05D-01
 ITU=  1  0
     Eigenvalues ---   -0.00387   0.00230   0.00235   0.01567   0.01568
     Eigenvalues ---    0.02388   0.02768   0.02772   0.02788   0.04571
     Eigenvalues ---    0.04573   0.04574   0.04927   0.04929   0.04974
     Eigenvalues ---    0.07469   0.09349   0.09488   0.09491   0.09493
     Eigenvalues ---    0.09496   0.09496   0.10268   0.10284   0.12348
     Eigenvalues ---    0.13008   0.13009   0.21726   0.21789   0.21979
     Eigenvalues ---    0.25399   0.26258   0.26326   0.27077   0.27130
     Eigenvalues ---    0.27184   0.28738   0.33687   0.33756   0.33818
     Eigenvalues ---    0.33848   0.33875   0.34036   0.34048   0.34065
     Eigenvalues ---    0.34260   0.34276   0.34283
 Use linear search instead of GDIIS.
 RFO step:  Lambda=-6.56577895D-03 EMin=-3.86753033D-03
 Skip linear search -- no minimum in search direction.
 Iteration  1 RMS(Cart)=  0.10049862 RMS(Int)=  0.00529210
 Iteration  2 RMS(Cart)=  0.00687578 RMS(Int)=  0.00146569
 Iteration  3 RMS(Cart)=  0.00001974 RMS(Int)=  0.00146560
 Iteration  4 RMS(Cart)=  0.00000002 RMS(Int)=  0.00146560
 Variable       Old X    -DE/DX   Delta X   Delta X   Delta X     New X
                                 (Linear)    (Quad)   (Total)
    R1        2.93719  -0.00045   0.00000  -0.00155  -0.00166   2.93553
    R2        2.93912  -0.00050   0.00000  -0.00449  -0.00439   2.93473
    R3        2.07060   0.00015   0.00000   0.00552   0.00552   2.07612
    R4        2.06981   0.00011   0.00000   0.00495   0.00495   2.07475
    R5        2.93918  -0.00020   0.00000  -0.00208  -0.00205   2.93713
    R6        2.07083   0.00002   0.00000   0.00564   0.00564   2.07647
    R7        2.06979   0.00013   0.00000   0.00281   0.00281   2.07260
    R8        2.93872  -0.00041   0.00000  -0.00319  -0.00313   2.93560
    R9        2.06998   0.00015   0.00000   0.00034   0.00034   2.07032
   R10        2.07016   0.00003   0.00000   0.00189   0.00189   2.07205
   R11        2.93780  -0.00061   0.00000  -0.00391  -0.00404   2.93376
   R12        2.06984   0.00010   0.00000   0.00507   0.00507   2.07490
   R13        2.07061   0.00015   0.00000   0.00548   0.00548   2.07609
   R14        2.93917  -0.00019   0.00000  -0.00198  -0.00194   2.93722
   R15        2.07074   0.00004   0.00000   0.00608   0.00608   2.07682
   R16        2.06965   0.00016   0.00000   0.00092   0.00092   2.07057
   R17        2.07020   0.00001   0.00000   0.00177   0.00177   2.07197
   R18        2.06995   0.00016   0.00000   0.00047   0.00047   2.07042
    A1        2.08836  -0.00010   0.00000  -0.01195  -0.01703   2.07132
    A2        1.88820   0.00020   0.00000   0.01326   0.01459   1.90279
    A3        1.87567  -0.00019   0.00000  -0.00640  -0.00478   1.87089
    A4        1.88809   0.00012   0.00000   0.00859   0.01025   1.89834
    A5        1.87728  -0.00007   0.00000  -0.00559  -0.00430   1.87298
    A6        1.82982   0.00004   0.00000   0.00368   0.00303   1.83285
    A7        2.08876  -0.00009   0.00000  -0.01137  -0.01655   2.07222
    A8        1.88725   0.00020   0.00000   0.01152   0.01292   1.90017
    A9        1.87591  -0.00023   0.00000  -0.00589  -0.00417   1.87174
   A10        1.88646   0.00005   0.00000   0.00489   0.00656   1.89302
   A11        1.87956   0.00004   0.00000  -0.00036   0.00104   1.88060
   A12        1.82940   0.00004   0.00000   0.00273   0.00203   1.83143
   A13        2.08895  -0.00001   0.00000  -0.00902  -0.01412   2.07483
   A14        1.88194  -0.00009   0.00000   0.00003   0.00127   1.88322
   A15        1.88290   0.00013   0.00000   0.00493   0.00676   1.88966
   A16        1.88497   0.00015   0.00000   0.00959   0.01144   1.89641
   A17        1.87870  -0.00020   0.00000  -0.00595  -0.00468   1.87402
   A18        1.83002   0.00002   0.00000   0.00166   0.00097   1.83099
   A19        2.08839  -0.00010   0.00000  -0.01221  -0.01735   2.07104
   A20        1.87730  -0.00005   0.00000  -0.00345  -0.00220   1.87509
   A21        1.88809   0.00013   0.00000   0.00903   0.01072   1.89881
   A22        1.87573  -0.00021   0.00000  -0.00891  -0.00723   1.86850
   A23        1.88812   0.00020   0.00000   0.01344   0.01477   1.90289
   A24        1.82978   0.00004   0.00000   0.00373   0.00307   1.83285
   A25        2.08850  -0.00004   0.00000  -0.01068  -0.01595   2.07255
   A26        1.88707   0.00019   0.00000   0.01202   0.01346   1.90052
   A27        1.87613  -0.00026   0.00000  -0.00832  -0.00660   1.86953
   A28        1.88617   0.00006   0.00000   0.00623   0.00794   1.89411
   A29        1.87975   0.00003   0.00000  -0.00067   0.00069   1.88044
   A30        1.82982   0.00004   0.00000   0.00288   0.00219   1.83201
   A31        2.08900  -0.00001   0.00000  -0.00910  -0.01418   2.07482
   A32        1.87896  -0.00022   0.00000  -0.00693  -0.00566   1.87329
   A33        1.88480   0.00016   0.00000   0.00993   0.01178   1.89658
   A34        1.88288   0.00015   0.00000   0.00530   0.00708   1.88996
   A35        1.88182  -0.00009   0.00000   0.00030   0.00158   1.88340
   A36        1.83001   0.00002   0.00000   0.00175   0.00106   1.83107
    D1       -0.22395  -0.00111   0.00000  -0.20745  -0.20705  -0.43101
    D2        1.94437  -0.00093   0.00000  -0.19904  -0.19927   1.74510
    D3       -2.37254  -0.00090   0.00000  -0.19324  -0.19278  -2.56531
    D4        1.94718  -0.00083   0.00000  -0.19275  -0.19301   1.75417
    D5       -2.16768  -0.00065   0.00000  -0.18434  -0.18522  -2.35290
    D6       -0.20140  -0.00061   0.00000  -0.17855  -0.17873  -0.38013
    D7       -2.36890  -0.00078   0.00000  -0.18527  -0.18485  -2.55375
    D8       -0.20057  -0.00060   0.00000  -0.17686  -0.17707  -0.37764
    D9        1.76571  -0.00057   0.00000  -0.17106  -0.17058   1.59513
   D10        0.15425   0.00077   0.00000   0.14423   0.14349   0.29773
   D11        2.31030   0.00077   0.00000   0.13842   0.13760   2.44790
   D12       -2.00559   0.00076   0.00000   0.14186   0.14172  -1.86388
   D13       -2.01694   0.00045   0.00000   0.12730   0.12734  -1.88960
   D14        0.13911   0.00045   0.00000   0.12149   0.12145   0.26057
   D15        2.10640   0.00044   0.00000   0.12493   0.12557   2.23198
   D16        2.29841   0.00038   0.00000   0.12163   0.12101   2.41942
   D17       -1.82873   0.00038   0.00000   0.11583   0.11513  -1.71360
   D18        0.13856   0.00037   0.00000   0.11927   0.11925   0.25781
   D19        0.06910   0.00034   0.00000   0.06181   0.06129   0.13039
   D20        2.23068   0.00046   0.00000   0.06817   0.06737   2.29806
   D21       -2.08467   0.00050   0.00000   0.07249   0.07242  -2.01225
   D22       -2.09960   0.00009   0.00000   0.05022   0.05040  -2.04919
   D23        0.06198   0.00021   0.00000   0.05657   0.05649   0.11847
   D24        2.02982   0.00025   0.00000   0.06089   0.06153   2.09135
   D25        2.21591  -0.00000   0.00000   0.04487   0.04435   2.26026
   D26       -1.90570   0.00012   0.00000   0.05123   0.05043  -1.85526
   D27        0.06214   0.00016   0.00000   0.05555   0.05547   0.11761
   D28        0.15502   0.00078   0.00000   0.14577   0.14496   0.29998
   D29        2.29930   0.00038   0.00000   0.12142   0.12074   2.42003
   D30       -2.01609   0.00046   0.00000   0.12839   0.12839  -1.88770
   D31       -2.00510   0.00077   0.00000   0.14404   0.14387  -1.86123
   D32        0.13918   0.00037   0.00000   0.11969   0.11965   0.25882
   D33        2.10698   0.00046   0.00000   0.12666   0.12730   2.23428
   D34        2.31082   0.00078   0.00000   0.14040   0.13954   2.45037
   D35       -1.82808   0.00037   0.00000   0.11605   0.11532  -1.71276
   D36        0.13972   0.00046   0.00000   0.12301   0.12298   0.26270
   D37       -0.22469  -0.00112   0.00000  -0.20906  -0.20870  -0.43339
   D38        1.94285  -0.00091   0.00000  -0.19781  -0.19803   1.74482
   D39       -2.37354  -0.00090   0.00000  -0.19278  -0.19232  -2.56586
   D40       -2.36973  -0.00080   0.00000  -0.18740  -0.18704  -2.55677
   D41       -0.20219  -0.00058   0.00000  -0.17615  -0.17637  -0.37856
   D42        1.76460  -0.00058   0.00000  -0.17111  -0.17066   1.59394
   D43        1.94640  -0.00084   0.00000  -0.19380  -0.19409   1.75231
   D44       -2.16924  -0.00062   0.00000  -0.18254  -0.18342  -2.35267
   D45       -0.20245  -0.00062   0.00000  -0.17751  -0.17771  -0.38016
   D46        0.06984   0.00035   0.00000   0.06342   0.06291   0.13274
   D47       -2.08431   0.00053   0.00000   0.07518   0.07515  -2.00917
   D48        2.23112   0.00048   0.00000   0.07044   0.06968   2.30080
   D49       -2.09814   0.00008   0.00000   0.04938   0.04956  -2.04858
   D50        2.03090   0.00025   0.00000   0.06114   0.06180   2.09270
   D51        0.06315   0.00020   0.00000   0.05641   0.05634   0.11948
   D52        2.21692  -0.00001   0.00000   0.04336   0.04281   2.25973
   D53        0.06277   0.00017   0.00000   0.05513   0.05505   0.11782
   D54       -1.90498   0.00012   0.00000   0.05039   0.04959  -1.85539
         Item               Value     Threshold  Converged?
 Maximum Force            0.001124     0.000450     NO 
 RMS     Force            0.000435     0.000300     NO 
 Maximum Displacement     0.357913     0.001800     NO 
 RMS     Displacement     0.101926     0.001200     NO 
 Predicted change in Energy=-6.095934D-03
 GradGradGradGradGradGradGradGradGradGradGradGradGradGradGradGradGradGrad

                          Input orientation:                          
 ---------------------------------------------------------------------
 Center     Atomic      Atomic             Coordinates (Angstroms)
 Number     Number       Type             X           Y           Z
 ---------------------------------------------------------------------
      1          6           0        0.167786    1.518997    0.165351
      2          6           0        1.405119    0.626147   -0.126069
      3          6           0        1.249791   -0.917802   -0.037597
      4          6           0       -0.168353   -1.518814    0.164557
      5          6           0       -1.404168   -0.626139   -0.128845
      6          6           0       -1.249590    0.917803   -0.038098
      7          1           0        0.241976    1.910655    1.189119
      8          1           0        1.800354    0.879758   -1.119485
      9          1           0        1.689122   -1.352815   -0.942041
     10          1           0       -0.247194   -2.401264   -0.484021
     11          1           0       -1.798391   -0.879759   -1.122869
     12          1           0       -1.878628    1.278794    0.784199
     13          1           0       -1.689150    1.354139   -0.941855
     14          1           0       -2.191387   -0.924663    0.572383
     15          1           0        0.244499    2.401625   -0.483104
     16          1           0        2.193360    0.923691    0.576111
     17          1           0        1.879076   -1.280060    0.784009
     18          1           0       -0.244221   -1.910291    1.188255
 ---------------------------------------------------------------------
                    Distance matrix (angstroms):
                    1          2          3          4          5
     1  C    0.000000
     2  C    1.553416   0.000000
     3  C    2.673931   1.554262   0.000000
     4  C    3.056352   2.676030   1.553452   0.000000
     5  C    2.675668   3.075764   2.671496   1.552480   0.000000
     6  C    1.552991   2.672131   3.101024   2.673434   1.554312
     7  H    1.098635   2.175450   3.243561   3.602687   3.298809
     8  H    2.173640   1.098820   2.169060   3.358232   3.676691
     9  H    3.433378   2.159342   1.095567   2.168485   3.279907
    10  H    3.995289   3.467490   2.154279   1.097992   2.148443
    11  H    3.358481   3.677478   3.235842   2.173219   1.099008
    12  H    2.151390   3.469514   3.909908   3.337005   2.165070
    13  H    2.168247   3.281765   3.823188   3.433777   2.159560
    14  H    3.420942   3.978405   3.494828   2.147558   1.095696
    15  H    1.097913   2.151008   3.496810   3.994966   3.465682
    16  H    2.150829   1.096774   2.158253   3.422411   3.980094
    17  H    3.338558   2.164833   1.096480   2.152369   3.469958
    18  H    3.602235   3.298679   2.172514   1.098620   2.174690
                    6          7          8          9         10
     6  C    0.000000
     7  H    2.171770   0.000000
     8  H    3.236202   2.970007   0.000000
     9  H    3.822153   4.157681   2.242374   0.000000
    10  H    3.495690   4.650948   3.919359   2.249077   0.000000
    11  H    2.170055   4.158701   4.005855   3.524093   2.264799
    12  H    1.096438   2.249481   4.161508   4.757532   4.220519
    13  H    1.095617   2.929165   3.526078   4.329009   4.048690
    14  H    2.157394   3.786904   4.695993   4.187499   2.660117
    15  H    2.152222   1.742810   2.267542   4.048874   4.827992
    16  H    3.497313   2.271075   1.741101   2.782359   4.258580
    17  H    3.910884   3.608999   2.879983   1.737994   2.717724
    18  H    3.242349   3.851754   4.158163   2.930316   1.742862
                   11         12         13         14         15
    11  H    0.000000
    12  H    2.881440   0.000000
    13  H    2.243880   1.738057   0.000000
    14  H    1.740787   2.235600   2.781743   0.000000
    15  H    3.917930   2.715598   2.246481   4.255794   0.000000
    16  H    4.698196   4.092736   4.190870   4.758407   2.665387
    17  H    4.161753   4.546215   4.759185   4.091426   4.222822
    18  H    2.969635   3.606218   4.157125   2.267646   4.650259
                   16         17         18
    16  H    0.000000
    17  H    2.235735   0.000000
    18  H    3.787872   2.251443   0.000000
 Stoichiometry    C6H12
 Framework group  C1[X(C6H12)]
 Deg. of freedom    48
 Full point group                 C1      NOp   1
 Largest Abelian subgroup         C1      NOp   1
 Largest concise Abelian subgroup C1      NOp   1
                         Standard orientation:                         
 ---------------------------------------------------------------------
 Center     Atomic      Atomic             Coordinates (Angstroms)
 Number     Number       Type             X           Y           Z
 ---------------------------------------------------------------------
      1          6           0        0.498636   -1.444649    0.164741
      2          6           0       -1.001694   -1.167283   -0.127113
      3          6           0       -1.522326    0.294471   -0.037956
      4          6           0       -0.498085    1.444613    0.165314
      5          6           0        1.001033    1.167113   -0.127655
      6          6           0        1.522268   -0.294424   -0.037594
      7          1           0        0.598847   -1.830989    1.188312
      8          1           0       -1.249908   -1.565072   -1.120873
      9          1           0       -2.105230    0.500079   -0.942509
     10          1           0       -0.804353    2.276258   -0.482878
     11          1           0        1.249128    1.565694   -1.121336
     12          1           0        2.244959   -0.351871    0.784960
     13          1           0        2.106672   -0.500022   -0.941241
     14          1           0        1.584385    1.773480    0.574178
     15          1           0        0.807426   -2.274750   -0.484099
     16          1           0       -1.586953   -1.774061    0.574460
     17          1           0       -2.246444    0.351952    0.783394
     18          1           0       -0.597526    1.830255    1.189208
 ---------------------------------------------------------------------
 Rotational constants (GHZ):           4.0523290           4.0231878           2.2060844
 Standard basis: 6-31G(d) (6D, 7F)
 There are   114 symmetry adapted cartesian basis functions of A   symmetry.
 There are   114 symmetry adapted basis functions of A   symmetry.
   114 basis functions,   216 primitive gaussians,   114 cartesian basis functions
    24 alpha electrons       24 beta electrons
       nuclear repulsion energy       248.8783713923 Hartrees.
 NAtoms=   18 NActive=   18 NUniq=   18 SFac= 1.00D+00 NAtFMM=   60 NAOKFM=F Big=F
 Integral buffers will be    131072 words long.
 Raffenetti 2 integral format.
 Two-electron integral symmetry is turned on.
 One-electron integrals computed using PRISM.
 NBasis=   114 RedAO= T EigKep=  2.57D-03  NBF=   114
 NBsUse=   114 1.00D-06 EigRej= -1.00D+00 NBFU=   114
 Initial guess from the checkpoint file:  "planar_chex_mode3.chk"
 B after Tr=     0.000000    0.000000    0.000000
         Rot=    0.998957   -0.000036    0.000042   -0.045654 Ang=  -5.23 deg.
 ExpMin= 1.61D-01 ExpMax= 3.05D+03 ExpMxC= 4.57D+02 IAcc=3 IRadAn=         5 AccDes= 0.00D+00
 Harris functional with IExCor=  402 and IRadAn=       5 diagonalized for initial guess.
 HarFok:  IExCor=  402 AccDes= 0.00D+00 IRadAn=         5 IDoV= 1 UseB2=F ITyADJ=14
 ICtDFT=  3500011 ScaDFX=  1.000000  1.000000  1.000000  1.000000
 FoFCou: FMM=F IPFlag=           0 FMFlag=      100000 FMFlg1=           0
         NFxFlg=           0 DoJE=T BraDBF=F KetDBF=T FulRan=T
         wScrn=  0.000000 ICntrl=       500 IOpCl=  0 I1Cent=   200000004 NGrid=           0
         NMat0=    1 NMatS0=      1 NMatT0=    0 NMatD0=    1 NMtDS0=    0 NMtDT0=    0
 Petite list used in FoFCou.
 Keep R1 ints in memory in canonical form, NReq=25245998.
 Requested convergence on RMS density matrix=1.00D-08 within 128 cycles.
 Requested convergence on MAX density matrix=1.00D-06.
 Requested convergence on             energy=1.00D-06.
 No special actions if energy rises.
 Integral accuracy reduced to 1.0D-05 until final iterations.
 Initial convergence to 1.0D-05 achieved.  Increase integral accuracy.
 SCF Done:  E(RB3LYP) =  -235.847270176     A.U. after   10 cycles
            NFock= 10  Conv=0.70D-08     -V/T= 2.0106
 Calling FoFJK, ICntrl=      2127 FMM=F ISym2X=0 I1Cent= 0 IOpClX= 0 NMat=1 NMatS=1 NMatT=0.
 ***** Axes restored to original set *****
 -------------------------------------------------------------------
 Center     Atomic                   Forces (Hartrees/Bohr)
 Number     Number              X              Y              Z
 -------------------------------------------------------------------
      1        6           0.001125481    0.000108843    0.000432995
      2        6          -0.000432787    0.001519351   -0.001224388
      3        6          -0.000077442   -0.000556695    0.000694767
      4        6          -0.000741161   -0.000174213    0.000324546
      5        6           0.000492868   -0.001149703   -0.001442912
      6        6          -0.000086197    0.000315276    0.000672160
      7        1          -0.000040763   -0.003217709   -0.000253672
      8        1          -0.002579212   -0.000944874    0.000477696
      9        1          -0.000312619    0.000493381   -0.000675191
     10        1          -0.000384765   -0.000626940    0.002898619
     11        1           0.002626452    0.001069208    0.000569059
     12        1           0.000119267    0.000640823   -0.000594503
     13        1           0.000316855   -0.000530211   -0.000648182
     14        1          -0.001049670   -0.001356170   -0.001476492
     15        1           0.000743838    0.000605996    0.002845840
     16        1           0.000380925    0.001270415   -0.001779817
     17        1          -0.000216274   -0.000697902   -0.000591727
     18        1           0.000115202    0.003231124   -0.000228798
 -------------------------------------------------------------------
 Cartesian Forces:  Max     0.003231124 RMS     0.001213238

 GradGradGradGradGradGradGradGradGradGradGradGradGradGradGradGradGradGrad
 Berny optimization.
 Using GEDIIS/GDIIS optimizer.
 FormGI is forming the generalized inverse of G from B-inverse, IUseBI=4.
 Internal  Forces:  Max     0.002653527 RMS     0.000852681
 Search for a local minimum.
 Step number   3 out of a maximum of  108
 All quantities printed in internal units (Hartrees-Bohrs-Radians)
 Mixed Optimization -- En-DIIS/RFO-DIIS
 Update second derivatives using D2CorX and points    2    3
 DE= -5.69D-03 DEPred=-6.10D-03 R= 9.33D-01
 TightC=F SS=  1.41D+00  RLast= 1.00D+00 DXNew= 8.4853D-01 3.0011D+00
 Trust test= 9.33D-01 RLast= 1.00D+00 DXMaxT set to 8.49D-01
 ITU=  1  1  0
 Use linear search instead of GDIIS.
     Eigenvalues ---   -0.00282   0.00230   0.00248   0.01604   0.01604
     Eigenvalues ---    0.02536   0.02836   0.02848   0.02908   0.04578
     Eigenvalues ---    0.04583   0.04597   0.04954   0.04960   0.05015
     Eigenvalues ---    0.07244   0.09065   0.09306   0.09326   0.09327
     Eigenvalues ---    0.09358   0.09360   0.10042   0.10144   0.12000
     Eigenvalues ---    0.12908   0.12913   0.21046   0.21537   0.21954
     Eigenvalues ---    0.24716   0.26021   0.26143   0.26976   0.27127
     Eigenvalues ---    0.27184   0.28688   0.33687   0.33754   0.33818
     Eigenvalues ---    0.33847   0.33875   0.34034   0.34048   0.34065
     Eigenvalues ---    0.34260   0.34275   0.34283
 RFO step:  Lambda=-8.67533647D-03 EMin=-2.81923972D-03
 Skip linear search -- no minimum in search direction.
 Iteration  1 RMS(Cart)=  0.10532168 RMS(Int)=  0.00577044
 Iteration  2 RMS(Cart)=  0.00739463 RMS(Int)=  0.00161537
 Iteration  3 RMS(Cart)=  0.00002318 RMS(Int)=  0.00161527
 Iteration  4 RMS(Cart)=  0.00000003 RMS(Int)=  0.00161527
 Variable       Old X    -DE/DX   Delta X   Delta X   Delta X     New X
                                 (Linear)    (Quad)   (Total)
    R1        2.93553  -0.00265   0.00000  -0.02291  -0.02317   2.91236
    R2        2.93473  -0.00057   0.00000  -0.00692  -0.00675   2.92797
    R3        2.07612  -0.00139   0.00000  -0.00762  -0.00762   2.06850
    R4        2.07475  -0.00114   0.00000  -0.00630  -0.00630   2.06846
    R5        2.93713  -0.00005   0.00000  -0.00147  -0.00138   2.93575
    R6        2.07647  -0.00158   0.00000  -0.00940  -0.00940   2.06707
    R7        2.07260  -0.00052   0.00000  -0.00252  -0.00252   2.07008
    R8        2.93560  -0.00094   0.00000  -0.00919  -0.00900   2.92660
    R9        2.07032   0.00024   0.00000   0.00209   0.00209   2.07241
   R10        2.07205  -0.00034   0.00000  -0.00186  -0.00186   2.07018
   R11        2.93376  -0.00209   0.00000  -0.01955  -0.01980   2.91396
   R12        2.07490  -0.00118   0.00000  -0.00658  -0.00658   2.06833
   R13        2.07609  -0.00137   0.00000  -0.00754  -0.00754   2.06856
   R14        2.93722  -0.00015   0.00000  -0.00209  -0.00202   2.93520
   R15        2.07682  -0.00170   0.00000  -0.01005  -0.01005   2.06677
   R16        2.07057   0.00018   0.00000   0.00180   0.00180   2.07237
   R17        2.07197  -0.00030   0.00000  -0.00172  -0.00172   2.07025
   R18        2.07042   0.00020   0.00000   0.00189   0.00189   2.07231
    A1        2.07132  -0.00020   0.00000  -0.02185  -0.02728   2.04405
    A2        1.90279  -0.00025   0.00000   0.00591   0.00731   1.91010
    A3        1.87089  -0.00024   0.00000  -0.00793  -0.00600   1.86489
    A4        1.89834   0.00053   0.00000   0.02133   0.02311   1.92145
    A5        1.87298   0.00017   0.00000   0.00180   0.00301   1.87600
    A6        1.83285   0.00001   0.00000   0.00267   0.00185   1.83470
    A7        2.07222  -0.00007   0.00000  -0.02097  -0.02675   2.04546
    A8        1.90017  -0.00047   0.00000   0.00182   0.00345   1.90362
    A9        1.87174  -0.00023   0.00000  -0.00760  -0.00564   1.86610
   A10        1.89302   0.00065   0.00000   0.02226   0.02409   1.91711
   A11        1.88060   0.00006   0.00000   0.00269   0.00404   1.88464
   A12        1.83143   0.00007   0.00000   0.00413   0.00322   1.83465
   A13        2.07483  -0.00017   0.00000  -0.02054  -0.02607   2.04876
   A14        1.88322   0.00054   0.00000   0.01125   0.01240   1.89562
   A15        1.88966  -0.00023   0.00000   0.00432   0.00644   1.89610
   A16        1.89641  -0.00047   0.00000  -0.00059   0.00156   1.89797
   A17        1.87402   0.00032   0.00000   0.00566   0.00693   1.88095
   A18        1.83099   0.00002   0.00000   0.00236   0.00152   1.83251
   A19        2.07104  -0.00018   0.00000  -0.02165  -0.02707   2.04397
   A20        1.87509  -0.00009   0.00000  -0.00283  -0.00150   1.87359
   A21        1.89881   0.00049   0.00000   0.02023   0.02200   1.92081
   A22        1.86850   0.00002   0.00000  -0.00289  -0.00107   1.86744
   A23        1.90289  -0.00024   0.00000   0.00634   0.00775   1.91064
[...]
 90016,-0.0254299,0.150866,-0.0290745,0.0008701,-0.0233401,0.0074357,0.
 0429402,0.0428807,-0.0347723,-0.0028186,-0.175418,0.0349153,0.0264581,
 -0.0475417,0.0198966,-0.0210095,0.0103331,-0.00703,0.0342697,-0.175419
 3,-0.0211764,0.0244088,0.0534266,0.0560123,-0.0780234,-0.0740619,0.091
 6861,-0.0936456,-0.0846461,-0.0059862,-0.0163359,0.0023673,-0.0249401,
 -0.2153251,-0.0035248,-0.0072116,-0.024157,0.0461694,0.0347521,0.02654
 17,0.0481726,0.0199243,-0.0209932,-0.0102179,0.0076586,-0.0341349,-0.1
 752724,-0.0954034,0.0337535,0.0862128,0.0020737,-0.0035781,-0.0299195,
 0.1158647,-0.0610008,-0.0848319,-0.0207481,0.0241513,-0.0532289,0.0558
 266,-0.0780848,0.0742297,-0.0914768,0.0937199,-0.0850131,-0.1872003,-0
 .0787132,0.0035035,-0.0701579,-0.0341948,-0.0015329,0.0205569,0.013482
 ,0.0462591,-0.006,-0.0164062,-0.0025275,-0.0249528,-0.2153352,0.003355
 5,0.0070483,0.024013,0.0461933,-0.1871271,-0.0786716,-0.0042221,-0.070
 1544,-0.0341903,0.0012962,-0.0212724,-0.013744,0.0461814,-0.094806,0.0
 336045,-0.08623,0.0020275,-0.0036114,0.0299554,-0.1158935,0.0611301,-0
 .0853961,-0.0292476,0.000853,0.0237725,0.0075496,0.0429548,-0.0427787,
 0.0352071,0.0029009,-0.1752595\Polar=62.7463717,-0.2117413,62.619961,0
 .0099976,0.0009051,55.9556694\Quadrupole=-0.1735142,-0.1314617,0.30497
 59,0.0704293,-0.0006943,0.0000243\PG=C02 [X(C6H12)]\NImag=0\\0.4358056
 7,0.00801518,0.58027004,0.01294460,-0.03357938,0.55855128,-0.12898550,
 0.03623105,0.03618370,0.56416641,0.03605208,-0.10749133,-0.02753259,0.
 04607374,0.45193493,0.03670409,-0.02682768,-0.11174712,0.03592312,-0.0
 0293698,0.55861562,0.00256569,0.02175631,-0.00583487,-0.08032732,0.000
 64666,-0.00171034,0.50016145,0.00589964,-0.02418264,-0.00055416,-0.001
 66592,-0.16515069,0.02616608,-0.04609706,0.47299409,-0.00181684,-0.018
 49220,0.00542530,0.00154249,0.02377178,-0.08762548,0.02751688,0.037018
 33,0.58457901,0.00011817,-0.00083518,-0.00001206,-0.00123121,-0.009867
 45,0.00043551,-0.15806727,-0.02238583,0.02218995,0.43588326,-0.0008356
 9,0.00079266,0.00016976,-0.03099305,-0.01334069,0.00575816,-0.02470461
 ,-0.08744750,0.00817825,0.00792067,0.58024548,0.00000238,-0.00017314,0
 .00328975,0.00546210,0.00205341,-0.00137150,0.02542199,0.00574280,-0.0
 8751370,-0.01330432,0.03361088,0.55849825,-0.00121376,-0.03097389,-0.0
 0547295,0.00118474,-0.00052157,-0.00017059,-0.02951959,0.01221701,-0.0
 1729007,-0.12876994,0.03616482,-0.03622081,0.56437868,-0.00986117,-0.0
 1333781,-0.00208694,-0.00052152,-0.00028206,-0.00003967,-0.00361669,0.
 00793128,-0.00701458,0.03598396,-0.10751124,0.02764065,0.04607804,0.45
 193275,-0.00043865,-0.00585412,-0.00139183,0.00016414,0.00003681,0.003
 29995,0.00105425,-0.00572885,0.00539632,-0.03674127,0.02693626,-0.1119
 4277,-0.03588925,0.00303422,0.55840554,-0.15792589,-0.02467100,-0.0256
 3914,-0.02956728,-0.00363700,-0.00115894,0.00070523,-0.00109328,0.0000
 9813,0.00254308,0.02169943,0.00583428,-0.08032788,0.00071634,0.0017321
 9,0.50032491,-0.02236060,-0.08744239,-0.00580889,0.01219372,0.00792662
 ,0.00576584,-0.00109363,0.00005710,0.00012744,0.00589733,-0.02418961,0
 .00056076,-0.00158797,-0.16513242,-0.02619922,-0.04597727,0.47302122,-
 0.02240625,-0.00825117,-0.08766019,0.01719117,0.00700477,0.00544867,-0
 .00009716,-0.00013074,0.00024221,0.00181047,0.01854560,0.00545488,-0.0
 0152148,-0.02379810,-0.08764319,-0.02778272,-0.03719516,0.58438843,-0.
 05238603,0.00403425,-0.03452345,0.00300412,-0.00290930,0.02585675,0.00
 104950,-0.00098130,-0.00041954,0.00007135,0.00002351,-0.00049051,-0.00
 028997,0.00076457,0.00024868,-0.00821785,0.00583264,-0.03035888,0.0626
 6046,0.00371385,-0.05744264,0.03410696,-0.00180755,0.00185757,-0.01937
 714,-0.00073595,0.00096803,-0.00055968,-0.00024255,-0.00053034,0.00006
 231,-0.00019852,0.00050009,-0.00023877,-0.00112212,0.00123128,-0.00969
 380,-0.00598607,0.05768759,-0.03598710,0.03352955,-0.29107032,-0.00096
 988,0.00131792,-0.01877734,-0.00005418,0.00096835,0.00061302,-0.000095
 90,0.00024024,-0.00090466,-0.00029432,0.00027275,0.00022367,-0.0006787
 1,0.00181018,-0.00654405,0.03635216,-0.03603800,0.31783745,0.00322034,
 -0.00176605,0.02594346,-0.05907620,0.00173354,-0.04232761,-0.00081758,
 0.00107348,0.00065947,0.00028208,-0.00002805,0.00030044,-0.00042444,-0
 .00039066,-0.00019915,0.00144126,-0.00061879,0.00041512,-0.00315872,0.
 00290871,0.00328760,0.06129002,-0.00282483,0.00164427,-0.01925881,0.00
 205373,-0.05073746,0.02363726,0.00800673,-0.00619493,0.03187756,0.0009
 3373,-0.00006439,-0.00016995,-0.00012496,-0.00003843,0.00045380,-0.000
 86316,0.00057390,0.00056021,0.00328042,-0.00131783,-0.00196360,-0.0063
 9749,0.05904060,-0.00152520,0.00057480,-0.01877314,-0.04218674,0.02520
 589,-0.29108268,-0.00191595,0.00014144,-0.00651874,-0.00034552,0.00020
 223,0.00022353,-0.00025862,0.00002275,-0.00090727,-0.00094259,-0.00022
 577,0.00061060,0.00281836,-0.00259211,-0.00035460,0.04468066,-0.024866
 86,0.31785832,0.00009620,0.00036414,-0.00002675,0.00069555,0.00056689,
 -0.00094166,-0.07850013,0.04663986,0.06326820,-0.01105203,0.01475277,0
 .02578374,0.00061617,-0.00067082,0.00140010,0.00034321,-0.00014745,0.0
 0001974,-0.00008925,-0.00003774,0.00000515,0.00074561,0.00015563,0.000
 08588,0.08329852,-0.00220453,-0.00585725,0.00268596,0.01243448,-0.0185
 9779,-0.02394925,0.04758604,-0.12278161,-0.10860171,-0.00542132,0.0045
 6797,0.00991986,0.00027550,-0.00037748,0.00005693,-0.00071799,-0.00003
 992,-0.00008984,-0.00032463,0.00030124,0.00006930,0.00047656,0.0016460
 9,0.00021307,-0.04873576,0.13771852,-0.00017052,0.00177373,0.00025714,
 -0.00437045,0.00723352,0.00676708,0.06394877,-0.10862101,-0.20252890,0
 .00250448,-0.00243748,-0.00681418,0.00008610,0.00024268,0.00022675,0.0
 0016460,0.00014930,0.00002896,-0.00010904,0.00025585,0.00027743,-0.000
 23766,0.00004801,0.00183056,-0.07297453,0.11489818,0.21808996,-0.00059
 569,0.00018585,-0.00002484,-0.00556801,-0.00008502,0.00008190,-0.00322
 306,-0.03075620,-0.00348530,-0.04971864,-0.02485862,-0.00533771,0.0019
 0885,0.02475008,0.00653251,-0.00316293,0.00160556,-0.00412838,0.000076
 50,0.00001044,0.00001723,-0.00003140,-0.00016530,0.00020758,0.00178645
 ,-0.00000534,0.00012986,0.05721803,0.00034568,0.00094743,0.00023636,-0
 .00192410,0.00084940,-0.00029006,-0.00041398,-0.00782209,-0.00134883,-
 0.02442931,-0.29619972,-0.04748094,-0.00152631,-0.01549552,-0.00424361
 ,0.00232323,-0.00002356,0.00303658,-0.00001366,0.00010669,-0.00004073,
 0.00001528,-0.00008244,0.00010205,0.00015173,0.00145364,0.00061556,0.0
 2593668,0.32096973,-0.00017199,-0.00041862,-0.00069111,0.00235319,0.00
 051306,0.00024730,0.00260215,0.01013484,0.00004182,-0.00562540,-0.0490
 8256,-0.05976117,0.00174963,0.01842640,0.00383423,-0.00262703,0.001010
 72,-0.00154098,0.00016525,0.00012168,0.00044806,-0.00006737,0.00002263
 ,-0.00002551,-0.00024867,0.00055261,0.00099087,0.00393089,0.05111083,0
 .06107366,0.00028195,-0.00002734,-0.00030028,-0.00042580,-0.00039067,0
 .00020043,0.00143970,-0.00061930,-0.00041289,0.00329233,-0.00175488,-0
 .02587889,-0.05932804,0.00179231,0.04301333,-0.00082134,0.00107413,-0.
 00064222,0.00005198,0.00013053,0.00015215,-0.00070989,-0.00057437,-0.0
 0010489,-0.00006609,0.00023524,0.00034237,0.00073119,-0.00039816,0.000
 83983,0.06155641,0.00093309,-0.00006438,0.00017261,-0.00012371,-0.0000
 3825,-0.00045385,-0.00086185,0.00057402,-0.00056277,-0.00288232,0.0016
 3744,0.01925785,0.00210792,-0.05071964,-0.02354329,0.00810022,-0.00618
 323,-0.03185363,-0.00009134,0.00006414,0.00002394,-0.00057541,0.000002
 20,0.00034071,0.00013212,-0.00001507,-0.00024258,-0.00081226,0.0004801
 2,-0.00029017,-0.00645435,0.05902246,0.00034603,-0.00020242,0.00022365
 ,0.00025999,-0.00002359,-0.00090609,0.00094473,0.00022393,0.00061204,0
 .00158937,-0.00057253,-0.01883829,0.04287257,-0.02511287,-0.29084866,0
 .00193575,-0.00013815,-0.00652667,-0.00002110,0.00015294,0.00011173,0.
 00009976,-0.00034275,0.00095555,-0.00090631,0.00003974,0.00010762,0.00
 009180,0.00042411,0.00055917,-0.04544064,0.02475330,0.31761007,-0.0205
 8570,0.00605588,0.02268506,-0.00486645,-0.00367408,-0.00258775,0.00022
 614,-0.00075144,0.00009157,-0.00019035,0.00003431,0.00034548,0.0007539
 1,-0.00190499,-0.00216886,-0.14496680,0.02757087,0.12220858,0.00139972
 ,0.00067040,-0.00017813,0.00036840,-0.00018841,-0.00006482,0.00005496,
 0.00017558,-0.00001620,0.00002955,0.00010594,-0.00020027,0.00078718,-0
 .00090766,-0.00062370,0.15997640,-0.00573848,0.00265607,0.00770499,-0.
 00110459,-0.00088817,-0.00074005,-0.00018040,0.00007683,0.00000625,-0.
 00090697,0.00044010,-0.00135882,0.01826780,-0.00716786,-0.02754567,0.0
 2662426,-0.05622752,-0.02936222,0.00034882,0.00099309,-0.00014383,0.00
 009807,-0.00015664,-0.00002424,-0.00013211,0.00006769,0.00002207,0.000
 03834,-0.00001829,0.00041059,0.00067379,-0.00595771,-0.00140733,-0.025
 67250,0.06092249,-0.00820218,0.00211952,0.00678952,-0.00175292,-0.0003
 4484,0.00025347,-0.00009703,-0.00020013,0.00002866,-0.00021073,-0.0001
 4953,0.00022672,0.00309988,-0.00171062,-0.00689027,0.12241983,-0.03001
 116,-0.20261904,-0.00011609,0.00021221,0.00183321,-0.00027610,0.000030
 98,0.00027632,-0.00002596,0.00000932,-0.00001872,0.00015680,-0.0000889
 0,0.00003962,-0.00010337,-0.00217315,0.00091912,-0.13099643,0.03685541
 ,0.21821716,-0.01096838,0.01475492,-0.02579063,0.00062056,-0.00066958,
 -0.00139919,0.00034376,-0.00014700,-0.00001886,0.00009561,0.00036937,0
 .00002641,0.00067990,0.00058794,0.00092387,-0.07812523,0.04634159,-0.0
 6288360,-0.00533997,-0.00114535,-0.00117515,-0.00006775,0.00013107,0.0
 0090584,0.00004864,0.00008096,0.00004693,-0.00002283,0.00003603,-0.000
 12699,0.00074517,0.00015581,-0.00008903,0.00769609,-0.01243967,0.01626
 514,0.08286835,-0.00539106,0.00457070,-0.00993166,0.00027570,-0.000377
 37,-0.00005633,-0.00071820,-0.00003990,0.00008769,-0.00219664,-0.00585
 562,-0.00269470,0.01236205,-0.01860391,0.02397662,0.04728807,-0.122861
 08,0.10877112,-0.00272831,0.00017416,-0.00100137,0.00023548,-0.0000151
 4,-0.00003909,0.00008107,0.00006277,-0.00003102,0.00165585,-0.00110477
 ,0.00089532,0.00047710,0.00164619,-0.00021173,-0.00238674,0.00329933,-
 0.00392782,-0.04842247,0.13780258,-0.00251873,0.00248527,-0.00690055,-
 0.00008483,-0.00024488,0.00022225,-0.00016393,-0.00014976,0.00002839,0
 .00016925,-0.00177488,0.00025609,0.00435698,-0.00724109,0.00678885,-0.
 06356383,0.10878763,-0.20282434,-0.00205678,-0.00071686,0.00091666,-0.
 00034280,0.00024292,0.00010936,-0.00004685,0.00003128,0.00003134,0.000
 24457,-0.00033525,0.00033688,0.00023462,-0.00004762,0.00183090,-0.0083
 7513,0.01445371,-0.02049624,0.07255719,-0.11507120,0.21843607,0.000878
 33,-0.00000707,0.00030275,0.00067723,0.00072332,-0.00023103,-0.0013364
 6,0.00286393,-0.00407614,-0.02040074,-0.00815138,0.00586485,-0.2629637
 2,-0.08777601,0.04345383,0.00106247,0.00085878,0.00030425,-0.00003715,
 0.00001335,-0.00003873,0.00010549,-0.00000461,0.00004311,-0.00005537,0
 .00008062,0.00012985,0.00073761,0.00046627,0.00048589,-0.00483592,-0.0
 0163721,0.00195294,0.00143905,0.00004915,-0.00055305,-0.00026898,-0.00
 046029,-0.00027646,0.28564432,0.00182929,-0.00559249,-0.00001102,0.000
 56361,-0.00032704,-0.00004220,0.00214171,-0.00184842,0.00309734,0.0181
 7367,0.00685978,-0.00501662,-0.08820686,-0.08318269,0.01841465,-0.0294
 8490,-0.01209000,0.00365191,-0.00016835,-0.00007742,-0.00022865,0.0000
 1911,0.00007842,-0.00000568,0.00001626,0.00006533,-0.00012543,-0.00037
 401,0.00076726,-0.00066538,0.00280120,0.00103189,-0.00011094,-0.000104
 96,0.00180055,-0.00029763,0.00036622,-0.00058638,0.00034859,0.09379622
 ,0.09277721,0.00018481,-0.00241635,0.00024413,0.00035640,0.00028642,-0
 .00069171,-0.00171047,0.00223624,-0.00153798,-0.01716667,-0.00692312,0
 .00378554,0.04490499,0.01914704,-0.05952166,-0.00904441,-0.00540386,0.
 00002334,-0.00004157,0.00005812,-0.00002606,-0.00006996,-0.00019361,0.
 00044942,-0.00045113,0.00007463,0.00003835,0.00077539,-0.00027543,0.00
 060001,0.03098252,0.01250709,-0.00614008,-0.00060026,0.00008436,0.0009
 8659,0.00003625,-0.00005996,-0.00002480,-0.04728289,-0.01807433,0.0608
 3017,-0.04975111,-0.02500542,0.00535814,0.00193333,0.02480684,-0.00652
 906,-0.00318289,0.00160703,0.00412412,-0.00059627,0.00018460,0.0000251
 9,-0.00556076,-0.00008347,-0.00009910,-0.00322562,-0.03072737,0.003464
 41,0.00023696,0.00426404,-0.00066188,0.00073395,-0.00081308,-0.0000915
 8,-0.00002248,0.00165858,-0.00024503,0.00013562,-0.00002826,0.00000876
 ,-0.00003099,-0.00016515,-0.00020766,-0.00054207,0.00028452,0.00041018
 ,0.00178609,-0.00000366,-0.00012751,-0.00000283,-0.00174286,-0.0005460
 9,0.05724127,-0.02457148,-0.29623496,0.04732208,-0.00153820,-0.0154903
 5,0.00423202,0.00233123,-0.00002208,-0.00302915,0.00034631,0.00094736,
 -0.00023474,-0.00192409,0.00084948,0.00028460,-0.00041701,-0.00781886,
 0.00134473,-0.00012755,-0.00397616,0.00183574,-0.00039660,0.00048017,-
 0.00042531,0.00003499,-0.00110457,0.00033483,-0.00002810,-0.00002487,-
 0.00005146,0.00001556,-0.00008239,-0.00010203,-0.00053926,-0.00032210,
 -0.00016801,0.00015346,0.00145406,-0.00061494,0.00001428,-0.00051724,-
 0.00019606,0.02608894,0.32100703,0.00564598,0.04892242,-0.05969347,-0.
 00175580,-0.01836022,0.00380457,0.00262303,-0.00100542,-0.00152250,0.0
 0017239,0.00041977,-0.00069046,-0.00237106,-0.00051309,0.00023997,-0.0
 0261196,-0.01022858,0.00004116,0.00318638,0.03326319,-0.00620249,-0.00
 083946,0.00028774,0.00055636,0.00012594,-0.00089095,0.00033633,-0.0000
 0900,0.00005129,0.00021294,0.00006736,-0.00002314,-0.00002597,-0.00006
 827,0.00001688,-0.00002365,0.00025108,-0.00055246,0.00099080,-0.000032
 57,-0.00058056,-0.00012043,-0.00393265,-0.05093892,0.06101311,-0.02043
 394,-0.00816965,-0.00593943,-0.26270067,-0.08770302,-0.04408646,0.0010
 3664,0.00084292,-0.00030094,0.00087977,-0.00001410,-0.00030088,0.00067
 759,0.00072408,0.00023535,-0.00135357,0.00286904,0.00407773,0.00083041
 ,-0.00036864,0.00038153,-0.00473858,-0.00159952,-0.00194938,-0.0002696
 9,-0.00046056,0.00027557,-0.00000454,0.00001369,0.00003292,0.00010541,
 -0.00000517,-0.00004413,-0.00147818,-0.00039587,-0.00039202,-0.0000563
 1,0.00008089,-0.00013010,0.00000332,-0.00006740,0.00005161,0.00074134,
 0.00046563,-0.00048531,0.28536273,0.01815250,0.00685541,0.00507142,-0.
 08813550,-0.08316886,-0.01868387,-0.02947728,-0.01209062,-0.00374349,0
 .00182932,-0.00559338,0.00001430,0.00056362,-0.00032695,0.00004400,0.0
 0215023,-0.00184647,-0.00309111,-0.00078388,0.00038239,0.00020821,0.00
 281218,0.00103642,0.00012188,0.00036726,-0.00058628,-0.00034771,-0.001
 74477,-0.00051752,0.00057526,0.00001907,0.00007835,0.00000560,0.001224
 74,0.00035117,0.00014077,0.00001573,0.00006531,0.00012549,-0.00006739,
 0.00010723,0.00000606,-0.00037569,0.00076692,0.00066433,0.09372496,0.0
 9276389,0.01710171,0.00690012,0.00382311,-0.04553778,-0.01941498,-0.05
 979854,0.00903663,0.00540194,0.00004979,-0.00018227,0.00241419,0.00024
 359,-0.00035215,-0.00028414,-0.00069215,0.00171180,-0.00222789,-0.0015
 2281,-0.00051491,0.00072223,0.00055704,-0.03097734,-0.01250923,-0.0062
 4195,-0.00003684,0.00005840,-0.00002420,0.00054580,0.00019595,-0.00011
 844,0.00006895,0.00019346,0.00044957,0.00088905,0.00013270,0.00033596,
 0.00045086,-0.00007438,0.00003932,-0.00005226,-0.00000630,0.00021369,-
 0.00077511,0.00027687,0.00059662,0.04798084,0.01836310,0.06112508,-0.0
 0018995,0.00003399,-0.00034670,0.00075659,-0.00191083,0.00219075,-0.14
 424424,0.02752660,-0.12202600,-0.02054266,0.00607043,-0.02276363,-0.00
 487923,-0.00367603,0.00257124,0.00022612,-0.00075200,-0.00009126,-0.00
 011888,0.00021969,0.00029608,0.00078503,-0.00091431,0.00062296,0.00771
 918,-0.00240143,0.00845766,-0.00054105,-0.00053978,0.00006655,0.000367
 39,-0.00018834,0.00006502,0.00001712,0.00007163,0.00004322,0.00005484,
 0.00017560,0.00001648,-0.00147669,0.00122547,-0.00089396,0.00002942,0.
 00010561,0.00020028,0.00143564,-0.00010606,0.00060155,0.15920252,-0.00
 091106,0.00043955,0.00135621,0.01818743,-0.00717857,0.02759944,0.02658
 199,-0.05624927,0.02949449,-0.00571866,0.00265966,-0.00772342,-0.00110
 741,-0.00088856,0.00073636,-0.00018042,0.00007676,-0.00000677,0.000116
 87,0.00003761,-0.00085876,0.00066959,-0.00595902,0.00140680,-0.0123909
 7,0.00330319,-0.01448171,0.00028471,-0.00032216,-0.00001614,0.00009789
 ,-0.00015664,0.00002437,0.00007175,0.00009357,-0.00003588,-0.00013205,
 0.00006770,-0.00002243,-0.00039562,0.00035127,-0.00013386,0.00003961,-
 0.00001817,-0.00041050,0.00004920,0.00180048,-0.00008391,-0.02561121,0
 .06094949,0.00020916,0.00014970,0.00022687,-0.00307062,0.00170487,-0.0
 0688224,-0.12223758,0.03014623,-0.20331984,0.00811930,-0.00210310,0.00
 674288,0.00173734,0.00033355,0.00026665,0.00009755,0.00019793,0.000028
 75,-0.00033148,0.00026117,0.00010988,0.00010322,0.00216794,0.00092258,
 -0.01618627,0.00392945,-0.02052317,-0.00041161,0.00016631,-0.00002461,
 0.00027640,-0.00003170,0.00027733,-0.00004324,0.00003612,0.00003136,0.
 00002613,-0.00000877,-0.00001861,0.00038652,-0.00013714,0.00033438,-0.
 00015681,0.00008919,0.00003964,0.00055439,0.00029762,0.00099008,0.1308
 1266,-0.03698884,0.21896405,0.00006961,0.00002404,0.00049340,-0.000290
 10,0.00076546,-0.00024992,-0.00830958,0.00582686,0.03035578,-0.0525965
 4,0.00412047,0.03522989,0.00307749,-0.00289597,-0.02579322,0.00104810,
 -0.00097859,0.00042047,0.00025681,-0.00028654,-0.00035793,0.00005237,-
 0.00009128,0.00002089,-0.00534946,-0.00273200,0.00203726,0.00024436,-0
 .00012097,-0.00316735,-0.00314065,0.00327563,-0.00282540,-0.00011898,0
 .00011421,0.00033084,-0.00008955,-0.00032447,0.00010784,0.00083002,-0.
 00078345,0.00051543,0.00007704,-0.00001372,-0.00016635,-0.00003738,-0.
 00016904,0.00004147,0.00139885,0.00034835,0.00011493,0.06287760,-0.000
 24240,-0.00053023,-0.00006289,-0.00019933,0.00050011,0.00023828,-0.001
 15102,0.00122839,0.00969327,0.00380124,-0.05741795,-0.03401048,-0.0018
 6519,0.00185097,0.01937927,-0.00073762,0.00096818,0.00055763,-0.000286
 67,-0.00095950,-0.00000126,0.00013104,0.00006420,-0.00015257,-0.001147
 89,0.00017353,0.00071320,0.00436210,-0.00396334,-0.03324962,0.00290224
 ,-0.00131950,0.00260034,0.00022057,0.00003739,-0.00026055,-0.00003698,
 0.00030136,-0.00025595,-0.00036636,0.00038273,-0.00072338,0.00001081,0
 .00010672,-0.00012178,0.00001351,-0.00007749,-0.00005809,0.00067096,0.
 00099311,-0.00021053,-0.00607900,0.05766129,0.00009869,-0.00024004,-0.
 00090302,0.00029272,-0.00027039,0.00022379,0.00067307,-0.00179012,-0.0
 0644943,0.03669341,-0.03343213,-0.29088450,0.00103380,-0.00131895,-0.0
 1884412,0.00005520,-0.00097112,0.00061427,0.00035577,-0.00000029,0.000
 95138,-0.00015228,-0.00002423,0.00011128,0.00115621,0.00099302,0.00092
 679,0.00068253,-0.00183529,-0.00622272,-0.00329478,0.00197294,-0.00037
 100,-0.00029668,0.00085907,0.00011020,-0.00000624,-0.00007025,0.000277
 62,-0.00038085,-0.00021059,0.00055709,-0.00001832,0.00004057,0.0004474
 9,0.00003870,0.00022813,-0.00002576,0.00017709,0.00014455,0.00183405,-
 0.03710804,0.03592511,0.31764661\\0.00000595,-0.00000011,0.00000564,-0
 .00001043,-0.00000586,-0.00000543,0.00000119,0.00001113,0.00000360,-0.
 00000597,0.00000011,0.00000562,0.00001045,0.00000586,-0.00000540,-0.00
 000120,-0.00001113,0.00000360,0.00000050,-0.00000436,0.00000017,-0.000
 00447,0.00000153,-0.00000137,0.00000386,-0.00000348,0.00000442,0.00000
 147,-0.00000470,-0.00000550,0.00000447,-0.00000153,-0.00000136,0.00000
 165,0.00000537,-0.00000439,-0.00000387,0.00000348,0.00000441,-0.000005
 63,-0.00000163,0.00000286,-0.00000145,0.00000471,-0.00000550,0.0000056
 2,0.00000163,0.00000287,-0.00000164,-0.00000536,-0.00000439,-0.0000005
 0,0.00000436,0.00000017\\\@


 MORNING PEOPLE ARE USUALLY ADMIRED AS EARLY BIRDS.
 RECALL BEN FRANKLIN'S APHORISM THAT THE EARLY BIRD GETS THE WORM.
 I IDENTIFY WITH THE WORM. --  CRAIG JAGGER, MINNEAPOLIS, KS.
 Job cpu time:       0 days  0 hours  3 minutes 58.3 seconds.
 Elapsed time:       0 days  0 hours  0 minutes 59.7 seconds.
 File lengths (MBytes):  RWF=     20 Int=      0 D2E=      0 Chk=      3 Scr=      1
 Normal termination of Gaussian 16 at Wed May 19 15:35:09 2021.
