 Entering Gaussian System, Link 0=/Applications/Gaussian/g16/g16
 Input=acetaldehyde.com
 Output=acetaldehyde.log
 Initial command:
 /Applications/Gaussian/g16/l1.exe "/var/folders/8d/fj_bgxp52vnfqt8xr3qz3b1h0000gn/T/Gau-74641.inp" -scrdir="/var/folders/8d/fj_bgxp52vnfqt8xr3qz3b1h0000gn/T/"
 Entering Link 1 = /Applications/Gaussian/g16/l1.exe PID=     74642.
  
 Copyright (c) 1988-2017, Gaussian, Inc.  All Rights Reserved.
  
 This is part of the Gaussian(R) 16 program.  It is based on
 the Gaussian(R) 09 system (copyright 2009, Gaussian, Inc.),
 the Gaussian(R) 03 system (copyright 2003, Gaussian, Inc.),
 the Gaussian(R) 98 system (copyright 1998, Gaussian, Inc.),
 the Gaussian(R) 94 system (copyright 1995, Gaussian, Inc.),
 the Gaussian 92(TM) system (copyright 1992, Gaussian, Inc.),
 the Gaussian 90(TM) system (copyright 1990, Gaussian, Inc.),
 the Gaussian 88(TM) system (copyright 1988, Gaussian, Inc.),
 the Gaussian 86(TM) system (copyright 1986, Carnegie Mellon
 University), and the Gaussian 82(TM) system (copyright 1983,
 Carnegie Mellon University). Gaussian is a federally registered
 trademark of Gaussian, Inc.
  
 This software contains proprietary and confidential information,
 including trade secrets, belonging to Gaussian, Inc.
  
 This software is provided under written license and may be
 used, copied, transmitted, or stored only in accord with that
 written license.
  
 The following legend is applicable only to US Government
 contracts under FAR:
  
                    RESTRICTED RIGHTS LEGEND
  
 Use, reproduction and disclosure by the US Government is
 subject to restrictions as set forth in subparagraphs (a)
 and (c) of the Commercial Computer Software - Restricted
 Rights clause in FAR 52.227-19.
  
 Gaussian, Inc.
 340 Quinnipiac St., Bldg. 40, Wallingford CT 06492
  
  
 ---------------------------------------------------------------
 Warning -- This program may not be used in any manner that
 competes with the business of Gaussian, Inc. or will provide
 assistance to any competitor of Gaussian, Inc.  The licensee
 of this program is prohibited from giving any competitor of
 Gaussian, Inc. access to this program.  By using this program,
 the user acknowledges that Gaussian, Inc. is engaged in the
 business of creating and licensing software in the field of
 computational chemistry and represents and warrants to the
 licensee that it is not a competitor of Gaussian, Inc. and that
 it will not use this program in any manner prohibited above.
 ---------------------------------------------------------------
  

 Cite this work as:
 Gaussian 16, Revision B.01,
 M. J. Frisch, G. W. Trucks, H. B. Schlegel, G. E. Scuseria, 
 M. A. Robb, J. R. Cheeseman, G. Scalmani, V. Barone, 
 G. A. Petersson, H. Nakatsuji, X. Li, M. Caricato, A. V. Marenich, 
 J. Bloino, B. G. Janesko, R. Gomperts, B. Mennucci, H. P. Hratchian, 
 J. V. Ortiz, A. F. Izmaylov, J. L. Sonnenberg, D. Williams-Young, 
 F. Ding, F. Lipparini, F. Egidi, J. Goings, B. Peng, A. Petrone, 
 T. Henderson, D. Ranasinghe, V. G. Zakrzewski, J. Gao, N. Rega, 
 G. Zheng, W. Liang, M. Hada, M. Ehara, K. Toyota, R. Fukuda, 
 J. Hasegawa, M. Ishida, T. Nakajima, Y. Honda, O. Kitao, H. Nakai, 
 T. Vreven, K. Throssell, J. A. Montgomery, Jr., J. E. Peralta, 
 F. Ogliaro, M. J. Bearpark, J. J. Heyd, E. N. Brothers, K. N. Kudin, 
 V. N. Staroverov, T. A. Keith, R. Kobayashi, J. Normand, 
 K. Raghavachari, A. P. Rendell, J. C. Burant, S. S. Iyengar, 
 J. Tomasi, M. Cossi, J. M. Millam, M. Klene, C. Adamo, R. Cammi, 
 J. W. Ochterski, R. L. Martin, K. Morokuma, O. Farkas, 
 J. B. Foresman, and D. J. Fox, Gaussian, Inc., Wallingford CT, 2016.
 
 ******************************************
 Gaussian 16:  EM64M-G16RevB.01 20-Dec-2017
                 7-May-2018 
 ******************************************
 %chk=acetaldehyde.chk
 %nproc=4
 Will use up to    4 processors via shared memory.
 %mem=8GB
 --------------------------------------------------
 #opt freq B3LYP/def2tzvp empiricaldispersion=GD3BJ
 --------------------------------------------------
 1/18=20,19=15,26=3,38=1/1,3;
 2/9=110,12=2,17=6,18=5,40=1/2;
 3/5=44,7=101,11=2,25=1,30=1,71=1,74=-5,124=41/1,2,3;
 4//1;
 5/5=2,38=5/2;
 6/7=2,8=2,9=2,10=2,28=1/1;
 7//1,2,3,16;
 1/18=20,19=15,26=3/3(2);
 2/9=110/2;
 99//99;
 2/9=110/2;
 3/5=44,7=101,11=2,25=1,30=1,71=1,74=-5,124=41/1,2,3;
 4/5=5,16=3,69=1/1;
 5/5=2,38=5/2;
 7//1,2,3,16;
 1/18=20,19=15,26=3/3(-5);
 2/9=110/2;
 6/7=2,8=2,9=2,10=2,19=2,28=1/1;
 99/9=1/99;
 --------------------------
 acetaldehyde = [H]C(C)[D=O
 --------------------------
 Symbolic Z-matrix:
 Charge =  0 Multiplicity = 1
 H                     1.02598   0.12223   0.06942 
 C                     2.12749   0.06671   0.05614 
 C                     2.85038   1.34175   0.36112 
 O                     2.70357  -0.98671  -0.19583 
 H                     2.119     2.1319    0.55012 
 H                     3.46686   1.62591  -0.49461 
 H                     3.46687   1.20794   1.2528 
 

 GradGradGradGradGradGradGradGradGradGradGradGradGradGradGradGradGradGrad
 Berny optimization.
 Initialization pass.
                           ----------------------------
                           !    Initial Parameters    !
                           ! (Angstroms and Degrees)  !
 --------------------------                            --------------------------
 ! Name  Definition              Value          Derivative Info.                !
 --------------------------------------------------------------------------------
 ! R1    R(1,2)                  1.103          estimate D2E/DX2                !
 ! R2    R(2,3)                  1.4971         estimate D2E/DX2                !
 ! R3    R(2,4)                  1.2268         estimate D2E/DX2                !
 ! R4    R(3,5)                  1.0931         estimate D2E/DX2                !
 ! R5    R(3,6)                  1.0923         estimate D2E/DX2                !
 ! R6    R(3,7)                  1.0923         estimate D2E/DX2                !
 ! A1    A(1,2,3)              115.9056         estimate D2E/DX2                !
 ! A2    A(1,2,4)              120.9736         estimate D2E/DX2                !
 ! A3    A(3,2,4)              123.1208         estimate D2E/DX2                !
 ! A4    A(2,3,5)              109.1332         estimate D2E/DX2                !
 ! A5    A(2,3,6)              109.5418         estimate D2E/DX2                !
 ! A6    A(2,3,7)              109.5421         estimate D2E/DX2                !
 ! A7    A(5,3,6)              108.967          estimate D2E/DX2                !
 ! A8    A(5,3,7)              108.9674         estimate D2E/DX2                !
 ! A9    A(6,3,7)              110.6635         estimate D2E/DX2                !
 ! D1    D(1,2,3,5)              0.0001         estimate D2E/DX2                !
 ! D2    D(1,2,3,6)           -119.222          estimate D2E/DX2                !
 ! D3    D(1,2,3,7)            119.2228         estimate D2E/DX2                !
 ! D4    D(4,2,3,5)           -179.9999         estimate D2E/DX2                !
 ! D5    D(4,2,3,6)             60.778          estimate D2E/DX2                !
 ! D6    D(4,2,3,7)            -60.7772         estimate D2E/DX2                !
 --------------------------------------------------------------------------------
 Trust Radius=3.00D-01 FncErr=1.00D-07 GrdErr=1.00D-06 EigMax=2.50D+02 EigMin=1.00D-04
 Number of steps in this run=     31 maximum allowed number of steps=    100.
 GradGradGradGradGradGradGradGradGradGradGradGradGradGradGradGradGradGrad

                          Input orientation:                          
 ---------------------------------------------------------------------
 Center     Atomic      Atomic             Coordinates (Angstroms)
 Number     Number       Type             X           Y           Z
 ---------------------------------------------------------------------
      1          1           0        1.025980    0.122230    0.069420
      2          6           0        2.127490    0.066710    0.056140
      3          6           0        2.850380    1.341750    0.361120
      4          8           0        2.703570   -0.986710   -0.195830
      5          1           0        2.119000    2.131900    0.550120
      6          1           0        3.466860    1.625910   -0.494610
      7          1           0        3.466870    1.207940    1.252800
 ---------------------------------------------------------------------
                    Distance matrix (angstroms):
                    1          2          3          4          5
     1  H    0.000000
     2  C    1.102988   0.000000
     3  C    2.213765   1.497100   0.000000
     4  O    2.028402   1.226805   2.398640   0.000000
     5  H    2.337635   2.123464   1.093149   3.259431   0.000000
     6  H    2.921828   2.127990   1.092277   2.738186   1.778824
     7  H    2.921831   2.127990   1.092272   2.738183   1.778824
                    6          7
     6  H    0.000000
     7  H    1.796703   0.000000
 Stoichiometry    C2H4O
 Framework group  C1[X(C2H4O)]
 Deg. of freedom    15
 Full point group                 C1      NOp   1
 Largest Abelian subgroup         C1      NOp   1
 Largest concise Abelian subgroup C1      NOp   1
                         Standard orientation:                         
 ---------------------------------------------------------------------
 Center     Atomic      Atomic             Coordinates (Angstroms)
 Number     Number       Type             X           Y           Z
 ---------------------------------------------------------------------
      1          1           0        0.292752    1.515992    0.000000
      2          6           0        0.222569    0.415239   -0.000000
      3          6           0       -1.162984   -0.151816   -0.000001
      4          8           0        1.232132   -0.281778    0.000000
      5          1           0       -1.885763    0.668284   -0.000003
      6          1           0       -1.310781   -0.755288    0.898356
      7          1           0       -1.310779   -0.755298   -0.898347
 ---------------------------------------------------------------------
 Rotational constants (GHZ):          55.4204492          10.2094440           9.1278469
 Standard basis: def2TZVP (5D, 7F)
 There are   132 symmetry adapted cartesian basis functions of A   symmetry.
 There are   117 symmetry adapted basis functions of A   symmetry.
   117 basis functions,   185 primitive gaussians,   132 cartesian basis functions
    12 alpha electrons       12 beta electrons
       nuclear repulsion energy        69.4854655729 Hartrees.
 NAtoms=    7 NActive=    7 NUniq=    7 SFac= 1.00D+00 NAtFMM=   60 NAOKFM=F Big=F
 Integral buffers will be    131072 words long.
 Raffenetti 2 integral format.
 Two-electron integral symmetry is turned on.
 Nuclear repulsion after empirical dispersion term =       69.4800736227 Hartrees.
 One-electron integrals computed using PRISM.
   1 Symmetry operations used in ECPInt.
 ECPInt:  NShTT=    1225 NPrTT=    3648 LenC2=    1223 LenP2D=    3246.
 LDataN:  DoStor=T MaxTD1= 6 Len=  172
 NBasis=   117 RedAO= T EigKep=  5.26D-04  NBF=   117
 NBsUse=   117 1.00D-06 EigRej= -1.00D+00 NBFU=   117
 ExpMin= 9.52D-02 ExpMax= 2.70D+04 ExpMxC= 9.22D+02 IAcc=3 IRadAn=         5 AccDes= 0.00D+00
 Harris functional with IExCor=  402 and IRadAn=       5 diagonalized for initial guess.
 HarFok:  IExCor=  402 AccDes= 0.00D+00 IRadAn=         5 IDoV= 1 UseB2=F ITyADJ=14
 ICtDFT=  3500011 ScaDFX=  1.000000  1.000000  1.000000  1.000000
 FoFCou: FMM=F IPFlag=           0 FMFlag=      100000 FMFlg1=           0
         NFxFlg=           0 DoJE=T BraDBF=F KetDBF=T FulRan=T
         wScrn=  0.000000 ICntrl=       500 IOpCl=  0 I1Cent=   200000004 NGrid=           0
         NMat0=    1 NMatS0=      1 NMatT0=    0 NMatD0=    1 NMtDS0=    0 NMtDT0=    0
 Petite list used in FoFCou.
 Keep R1 ints in memory in canonical form, NReq=27668975.
 Requested convergence on RMS density matrix=1.00D-08 within 128 cycles.
 Requested convergence on MAX density matrix=1.00D-06.
 Requested convergence on             energy=1.00D-06.
 No special actions if energy rises.
 Integral accuracy reduced to 1.0D-05 until final iterations.
 Initial convergence to 1.0D-05 achieved.  Increase integral accuracy.
 SCF Done:  E(RB3LYP) =  -153.900660732     A.U. after   13 cycles
            NFock= 13  Conv=0.13D-08     -V/T= 2.0052

 **********************************************************************

            Population analysis using the SCF Density.

 **********************************************************************

 Orbital symmetries:
       Occupied  (A) (A) (A) (A) (A) (A) (A) (A) (A) (A) (A) (A)
       Virtual   (A) (A) (A) (A) (A) (A) (A) (A) (A) (A) (A) (A)
                 (A) (A) (A) (A) (A) (A) (A) (A) (A) (A) (A) (A)
                 (A) (A) (A) (A) (A) (A) (A) (A) (A) (A) (A) (A)
                 (A) (A) (A) (A) (A) (A) (A) (A) (A) (A) (A) (A)
                 (A) (A) (A) (A) (A) (A) (A) (A) (A) (A) (A) (A)
                 (A) (A) (A) (A) (A) (A) (A) (A) (A) (A) (A) (A)
                 (A) (A) (A) (A) (A) (A) (A) (A) (A) (A) (A) (A)
                 (A) (A) (A) (A) (A) (A) (A) (A) (A) (A) (A) (A)
                 (A) (A) (A) (A) (A) (A) (A) (A) (A)
 The electronic state is 1-A.
 Alpha  occ. eigenvalues --  -19.13187 -10.27159 -10.18718  -1.04574  -0.76323
 Alpha  occ. eigenvalues --   -0.59129  -0.48473  -0.45757  -0.44333  -0.40340
 Alpha  occ. eigenvalues --   -0.36930  -0.26810
 Alpha virt. eigenvalues --   -0.04877   0.04016   0.06333   0.10852   0.11156
 Alpha virt. eigenvalues --    0.14014   0.15782   0.20321   0.20608   0.24364
 Alpha virt. eigenvalues --    0.27461   0.31407   0.37843   0.39052   0.39410
 Alpha virt. eigenvalues --    0.42425   0.43286   0.45243   0.50077   0.52378
 Alpha virt. eigenvalues --    0.53063   0.58103   0.62734   0.75240   0.78820
 Alpha virt. eigenvalues --    0.85871   0.87241   0.91234   0.94228   1.03675
 Alpha virt. eigenvalues --    1.05954   1.10952   1.19651   1.36699   1.38042
 Alpha virt. eigenvalues --    1.47244   1.48953   1.49772   1.52328   1.52953
 Alpha virt. eigenvalues --    1.54307   1.63213   1.68279   1.81116   1.84166
 Alpha virt. eigenvalues --    1.89907   1.90927   1.94848   2.03197   2.10215
 Alpha virt. eigenvalues --    2.14404   2.20372   2.27441   2.31465   2.32998
 Alpha virt. eigenvalues --    2.35712   2.49911   2.51222   2.52746   2.66975
 Alpha virt. eigenvalues --    2.67263   2.72162   2.82356   2.85176   2.88376
 Alpha virt. eigenvalues --    2.89528   2.92571   2.98993   3.03862   3.05017
 Alpha virt. eigenvalues --    3.11203   3.13427   3.17902   3.28164   3.30432
 Alpha virt. eigenvalues --    3.38885   3.44629   3.49796   3.66808   3.74336
 Alpha virt. eigenvalues --    3.80903   3.84349   3.88422   3.94180   4.12704
 Alpha virt. eigenvalues --    4.26900   4.29246   4.43915   4.55633   4.65204
 Alpha virt. eigenvalues --    5.17258   5.17633   5.51253   5.61003   6.01926
 Alpha virt. eigenvalues --    6.23999   6.31777   6.32048   6.40696   6.76872
 Alpha virt. eigenvalues --    6.88736   7.00423  22.24942  22.64486  43.62113
          Condensed to atoms (all electrons):
               1          2          3          4          5          6
     1  H    0.703095   0.429787  -0.178459  -0.061922   0.015153   0.007728
     2  C    0.429787   4.662248   0.212859   0.621493  -0.018202  -0.014076
     3  C   -0.178459   0.212859   5.258683  -0.112727   0.346062   0.369317
     4  O   -0.061922   0.621493  -0.112727   7.833366   0.007044   0.002568
     5  H    0.015153  -0.018202   0.346062   0.007044   0.595006  -0.020880
     6  H    0.007728  -0.014076   0.369317   0.002568  -0.020880   0.532518
     7  H    0.007728  -0.014076   0.369318   0.002569  -0.020880  -0.009120
               7
     1  H    0.007728
     2  C   -0.014076
     3  C    0.369318
     4  O    0.002569
     5  H   -0.020880
     6  H   -0.009120
     7  H    0.532517
 Mulliken charges:
               1
     1  H    0.076889
     2  C    0.119967
     3  C   -0.265052
     4  O   -0.292391
     5  H    0.096699
     6  H    0.131944
     7  H    0.131944
 Sum of Mulliken charges =  -0.00000
 Mulliken charges with hydrogens summed into heavy atoms:
               1
     2  C    0.196856
     3  C    0.095536
     4  O   -0.292391
 Electronic spatial extent (au):  <R**2>=            167.4538
 Charge=             -0.0000 electrons
 Dipole moment (field-independent basis, Debye):
    X=             -2.6019    Y=              1.1158    Z=              0.0000  Tot=              2.8310
 Quadrupole moment (field-independent basis, Debye-Ang):
   XX=            -21.4596   YY=            -18.0806   ZZ=            -17.8497
   XY=              1.1499   XZ=             -0.0000   YZ=              0.0000
 Traceless Quadrupole moment (field-independent basis, Debye-Ang):
   XX=             -2.3296   YY=              1.0493   ZZ=              1.2802
   XY=              1.1499   XZ=             -0.0000   YZ=              0.0000
 Octapole moment (field-independent basis, Debye-Ang**2):
  XXX=             -0.9808  YYY=              0.5090  ZZZ=              0.0000  XYY=              0.5858
  XXY=              0.5873  XXZ=              0.0000  XZZ=              0.7311  YZZ=             -1.2342
  YYZ=             -0.0000  XYZ=             -0.0000
 Hexadecapole moment (field-independent basis, Debye-Ang**3):
 XXXX=           -154.0830 YYYY=            -44.7041 ZZZZ=            -23.9752 XXXY=             -1.8735
 XXXZ=             -0.0000 YYYX=             -0.2960 YYYZ=              0.0000 ZZZX=             -0.0000
 ZZZY=             -0.0000 XXYY=            -31.2609 XXZZ=            -27.8384 YYZZ=            -11.0980
 XXYZ=              0.0000 YYXZ=              0.0000 ZZXY=              0.8710
 N-N= 6.948007362269D+01 E-N=-4.988698578673D+02  KE= 1.531024015803D+02
   1 Symmetry operations used in ECPInt.
 ECPInt:  NShTT=    1225 NPrTT=    3648 LenC2=    1223 LenP2D=    3246.
 LDataN:  DoStor=T MaxTD1= 7 Len=  274
 Calling FoFJK, ICntrl=      2127 FMM=F ISym2X=0 I1Cent= 0 IOpClX= 0 NMat=1 NMatS=1 NMatT=0.
 ***** Axes restored to original set *****
 -------------------------------------------------------------------
 Center     Atomic                   Forces (Hartrees/Bohr)
 Number     Number              X              Y              Z
 -------------------------------------------------------------------
      1        1          -0.002729697   -0.002918570   -0.000698162
      2        6           0.021049542   -0.031403896   -0.007511441
      3        6          -0.008214433    0.005414739    0.001292480
      4        8          -0.018583758    0.028072558    0.006714760
      5        1           0.003258371    0.001255250    0.000300513
      6        1           0.002609309   -0.000875388    0.002731958
      7        1           0.002610668    0.000455307   -0.002830108
 -------------------------------------------------------------------
 Cartesian Forces:  Max     0.031403896 RMS     0.011591252

 GradGradGradGradGradGradGradGradGradGradGradGradGradGradGradGradGradGrad
 Berny optimization.
 FormGI is forming the generalized inverse of G from B-inverse, IUseBI=4.
 Internal  Forces:  Max     0.034210665 RMS     0.007907195
 Search for a local minimum.
 Step number   1 out of a maximum of   31
 All quantities printed in internal units (Hartrees-Bohrs-Radians)
 Mixed Optimization -- RFO/linear search
 Second derivative matrix not updated -- first step.
 ITU=  0
     Eigenvalues ---    0.00804   0.00804   0.07503   0.07636   0.16000
     Eigenvalues ---    0.16000   0.16000   0.16000   0.22000   0.32683
     Eigenvalues ---    0.33354   0.34451   0.34551   0.34551   0.92431
 RFO step:  Lambda=-2.23737058D-03 EMin= 8.04303028D-03
 Linear search not attempted -- first point.
 Iteration  1 RMS(Cart)=  0.02509675 RMS(Int)=  0.00041899
 Iteration  2 RMS(Cart)=  0.00037971 RMS(Int)=  0.00019001
 Iteration  3 RMS(Cart)=  0.00000008 RMS(Int)=  0.00019001
 Variable       Old X    -DE/DX   Delta X   Delta X   Delta X     New X
                                 (Linear)    (Quad)   (Total)
    R1        2.08435   0.00257   0.00000   0.00766   0.00766   2.09200
    R2        2.82911   0.00575   0.00000   0.01749   0.01749   2.84660
    R3        2.31833  -0.03421   0.00000  -0.03692  -0.03692   2.28140
    R4        2.06575  -0.00122   0.00000  -0.00352  -0.00352   2.06223
    R5        2.06410  -0.00090   0.00000  -0.00257  -0.00257   2.06153
    R6        2.06410  -0.00089   0.00000  -0.00257  -0.00257   2.06153
    A1        2.02294   0.00216   0.00000   0.01514   0.01514   2.03808
    A2        2.11139  -0.00439   0.00000  -0.02518  -0.02518   2.08621
    A3        2.14886   0.00223   0.00000   0.01003   0.01003   2.15889
    A4        1.90473   0.00566   0.00000   0.04476   0.04437   1.94910
    A5        1.91187   0.00038   0.00000  -0.00266  -0.00299   1.90887
    A6        1.91187   0.00038   0.00000  -0.00266  -0.00300   1.90887
    A7        1.90183  -0.00114   0.00000   0.00297   0.00259   1.90442
    A8        1.90184  -0.00114   0.00000   0.00297   0.00259   1.90443
    A9        1.93144  -0.00401   0.00000  -0.04406  -0.04434   1.88711
    D1        0.00000   0.00000   0.00000   0.00001   0.00001   0.00001
    D2       -2.08082  -0.00223   0.00000  -0.02892  -0.02896  -2.10977
    D3        2.08083   0.00223   0.00000   0.02893   0.02896   2.10979
    D4       -3.14159   0.00000   0.00000   0.00000   0.00000  -3.14159
    D5        1.06078  -0.00223   0.00000  -0.02892  -0.02896   1.03182
    D6       -1.06076   0.00223   0.00000   0.02892   0.02896  -1.03180
         Item               Value     Threshold  Converged?
 Maximum Force            0.034211     0.000450     NO 
 RMS     Force            0.007907     0.000300     NO 
 Maximum Displacement     0.068668     0.001800     NO 
 RMS     Displacement     0.024976     0.001200     NO 
 Predicted change in Energy=-1.130599D-03
 GradGradGradGradGradGradGradGradGradGradGradGradGradGradGradGradGradGrad

                          Input orientation:                          
 ---------------------------------------------------------------------
 Center     Atomic      Atomic             Coordinates (Angstroms)
 Number     Number       Type             X           Y           Z
 ---------------------------------------------------------------------
      1          1           0        1.018766    0.085893    0.060726
      2          6           0        2.125446    0.058483    0.054172
      3          6           0        2.838018    1.349230    0.362908
      4          8           0        2.693570   -0.977529   -0.193633
      5          1           0        2.135203    2.161164    0.557121
      6          1           0        3.474567    1.621718   -0.480092
      7          1           0        3.474580    1.210772    1.237957
 ---------------------------------------------------------------------
                    Distance matrix (angstroms):
                    1          2          3          4          5
     1  H    0.000000
     2  C    1.107040   0.000000
     3  C    2.235400   1.506355   0.000000
     4  O    2.000133   1.207266   2.396750   0.000000
     5  H    2.408234   2.162018   1.091286   3.275180   0.000000
     6  H    2.946559   2.132902   1.090914   2.729121   1.777838
     7  H    2.946566   2.132904   1.090914   2.729118   1.777840
                    6          7
     6  H    0.000000
     7  H    1.766513   0.000000
 Stoichiometry    C2H4O
 Framework group  C1[X(C2H4O)]
 Deg. of freedom    15
 Full point group                 C1      NOp   1
 Largest Abelian subgroup         C1      NOp   1
 Largest concise Abelian subgroup C1      NOp   1
                         Standard orientation:                         
 ---------------------------------------------------------------------
 Center     Atomic      Atomic             Coordinates (Angstroms)
 Number     Number       Type             X           Y           Z
 ---------------------------------------------------------------------
      1          1           0        0.342519    1.510460    0.000000
      2          6           0        0.235790    0.408578   -0.000001
      3          6           0       -1.168231   -0.137159   -0.000000
      4          8           0        1.223956   -0.284979    0.000000
      5          1           0       -1.911319    0.662045   -0.000006
      6          1           0       -1.314104   -0.760587    0.883262
      7          1           0       -1.314101   -0.760602   -0.883252
 ---------------------------------------------------------------------
 Rotational constants (GHZ):          56.3795657          10.2095459           9.1356367
 Standard basis: def2TZVP (5D, 7F)
 There are   132 symmetry adapted cartesian basis functions of A   symmetry.
 There are   117 symmetry adapted basis functions of A   symmetry.
   117 basis functions,   185 primitive gaussians,   132 cartesian basis functions
    12 alpha electrons       12 beta electrons
       nuclear repulsion energy        69.7341915052 Hartrees.
 NAtoms=    7 NActive=    7 NUniq=    7 SFac= 1.00D+00 NAtFMM=   60 NAOKFM=F Big=F
 Integral buffers will be    131072 words long.
 Raffenetti 2 integral format.
 Two-electron integral symmetry is turned on.
 Nuclear repulsion after empirical dispersion term =       69.7288086354 Hartrees.
 One-electron integrals computed using PRISM.
   1 Symmetry operations used in ECPInt.
 ECPInt:  NShTT=    1225 NPrTT=    3648 LenC2=    1223 LenP2D=    3246.
 LDataN:  DoStor=T MaxTD1= 6 Len=  172
 NBasis=   117 RedAO= T EigKep=  5.55D-04  NBF=   117
 NBsUse=   117 1.00D-06 EigRej= -1.00D+00 NBFU=   117
 Initial guess from the checkpoint file:  "acetaldehyde.chk"
 B after Tr=    -0.000000    0.000000   -0.000000
         Rot=    0.999994    0.000001    0.000000    0.003572 Ang=   0.41 deg.
 ExpMin= 9.52D-02 ExpMax= 2.70D+04 ExpMxC= 9.22D+02 IAcc=3 IRadAn=         5 AccDes= 0.00D+00
 Harris functional with IExCor=  402 and IRadAn=       5 diagonalized for initial guess.
 HarFok:  IExCor=  402 AccDes= 0.00D+00 IRadAn=         5 IDoV= 1 UseB2=F ITyADJ=14
 ICtDFT=  3500011 ScaDFX=  1.000000  1.000000  1.000000  1.000000
 FoFCou: FMM=F IPFlag=           0 FMFlag=      100000 FMFlg1=           0
         NFxFlg=           0 DoJE=T BraDBF=F KetDBF=T FulRan=T
         wScrn=  0.000000 ICntrl=       500 IOpCl=  0 I1Cent=   200000004 NGrid=           0
         NMat0=    1 NMatS0=      1 NMatT0=    0 NMatD0=    1 NMtDS0=    0 NMtDT0=    0
 Petite list used in FoFCou.
 Keep R1 ints in memory in canonical form, NReq=27668975.
 Requested convergence on RMS density matrix=1.00D-08 within 128 cycles.
 Requested convergence on MAX density matrix=1.00D-06.
 Requested convergence on             energy=1.00D-06.
 No special actions if energy rises.
 Integral accuracy reduced to 1.0D-05 until final iterations.
 Initial convergence to 1.0D-05 achieved.  Increase integral accuracy.
 SCF Done:  E(RB3LYP) =  -153.901932612     A.U. after   10 cycles
            NFock= 10  Conv=0.99D-08     -V/T= 2.0049
   1 Symmetry operations used in ECPInt.
 ECPInt:  NShTT=    1225 NPrTT=    3648 LenC2=    1223 LenP2D=    3246.
 LDataN:  DoStor=T MaxTD1= 7 Len=  274
 Calling FoFJK, ICntrl=      2127 FMM=F ISym2X=0 I1Cent= 0 IOpClX= 0 NMat=1 NMatS=1 NMatT=0.
 ***** Axes restored to original set *****
 -------------------------------------------------------------------
 Center     Atomic                   Forces (Hartrees/Bohr)
 Number     Number              X              Y              Z
 -------------------------------------------------------------------
      1        1          -0.001547238    0.001153025    0.000275835
      2        6           0.003598434   -0.006914855   -0.001654130
      3        6          -0.003164101    0.001745093    0.000417115
      4        8          -0.001829118    0.005381385    0.001287285
      5        1           0.000520131   -0.000721916   -0.000172533
      6        1           0.001210930   -0.000353219    0.000056289
      7        1           0.001210963   -0.000289513   -0.000209859
 -------------------------------------------------------------------
 Cartesian Forces:  Max     0.006914855 RMS     0.002375496

 GradGradGradGradGradGradGradGradGradGradGradGradGradGradGradGradGradGrad
 Berny optimization.
 Using GEDIIS/GDIIS optimizer.
 FormGI is forming the generalized inverse of G from B-inverse, IUseBI=4.
 Internal  Forces:  Max     0.005743010 RMS     0.001431946
 Search for a local minimum.
 Step number   2 out of a maximum of   31
 All quantities printed in internal units (Hartrees-Bohrs-Radians)
 Mixed Optimization -- RFO/linear search
 Update second derivatives using D2CorX and points    1    2
 DE= -1.27D-03 DEPred=-1.13D-03 R= 1.12D+00
 TightC=F SS=  1.41D+00  RLast= 1.00D-01 DXNew= 5.0454D-01 3.0057D-01
 Trust test= 1.12D+00 RLast= 1.00D-01 DXMaxT set to 3.01D-01
 ITU=  1  0
 Use linear search instead of GDIIS.
     Eigenvalues ---    0.00804   0.00804   0.06940   0.07261   0.15862
     Eigenvalues ---    0.16000   0.16000   0.17374   0.22389   0.32395
     Eigenvalues ---    0.33312   0.34398   0.34551   0.34749   0.81749
 RFO step:  Lambda=-8.20979509D-05 EMin= 8.04303028D-03
 Quartic linear search produced a step of  0.14250.
 Iteration  1 RMS(Cart)=  0.00493785 RMS(Int)=  0.00004444
 Iteration  2 RMS(Cart)=  0.00002636 RMS(Int)=  0.00003692
 Iteration  3 RMS(Cart)=  0.00000000 RMS(Int)=  0.00003692
 Variable       Old X    -DE/DX   Delta X   Delta X   Delta X     New X
                                 (Linear)    (Quad)   (Total)
    R1        2.09200   0.00158   0.00109   0.00456   0.00565   2.09766
    R2        2.84660   0.00024   0.00249  -0.00107   0.00142   2.84802
    R3        2.28140  -0.00574  -0.00526  -0.00315  -0.00841   2.27299
    R4        2.06223  -0.00090  -0.00050  -0.00261  -0.00311   2.05912
    R5        2.06153   0.00057  -0.00037   0.00218   0.00181   2.06334
    R6        2.06153   0.00058  -0.00037   0.00218   0.00182   2.06334
    A1        2.03808  -0.00085   0.00216  -0.00845  -0.00629   2.03179
    A2        2.08621   0.00155  -0.00359   0.01323   0.00964   2.09586
    A3        2.15889  -0.00071   0.00143  -0.00478  -0.00335   2.15554
    A4        1.94910   0.00021   0.00632  -0.00070   0.00556   1.95466
    A5        1.90887  -0.00004  -0.00043  -0.00134  -0.00184   1.90703
    A6        1.90887  -0.00004  -0.00043  -0.00135  -0.00184   1.90703
    A7        1.90442   0.00037   0.00037   0.00511   0.00542   1.90984
    A8        1.90443   0.00037   0.00037   0.00511   0.00541   1.90984
    A9        1.88711  -0.00090  -0.00632  -0.00705  -0.01344   1.87366
    D1        0.00001   0.00000   0.00000  -0.00000  -0.00000   0.00000
    D2       -2.10977  -0.00057  -0.00413  -0.00507  -0.00919  -2.11897
    D3        2.10979   0.00057   0.00413   0.00506   0.00918   2.11898
    D4       -3.14159   0.00000   0.00000   0.00001   0.00001  -3.14158
    D5        1.03182  -0.00057  -0.00413  -0.00506  -0.00918   1.02264
    D6       -1.03180   0.00057   0.00413   0.00507   0.00920  -1.02261
         Item               Value     Threshold  Converged?
 Maximum Force            0.005743     0.000450     NO 
 RMS     Force            0.001432     0.000300     NO 
 Maximum Displacement     0.009811     0.001800     NO 
 RMS     Displacement     0.004940     0.001200     NO 
 Predicted change in Energy=-6.270270D-05
 GradGradGradGradGradGradGradGradGradGradGradGradGradGradGradGradGradGrad

                          Input orientation:                          
 ---------------------------------------------------------------------
 Center     Atomic      Atomic             Coordinates (Angstroms)
 Number     Number       Type             X           Y           Z
 ---------------------------------------------------------------------
      1          1           0        1.015377    0.087120    0.061021
      2          6           0        2.124955    0.056251    0.053635
      3          6           0        2.833694    1.349820    0.363048
      4          8           0        2.697876   -0.972338   -0.192388
      5          1           0        2.133946    2.162168    0.557362
      6          1           0        3.477145    1.618004   -0.477331
      7          1           0        3.477157    1.208705    1.233813
 ---------------------------------------------------------------------
                    Distance matrix (angstroms):
                    1          2          3          4          5
     1  H    0.000000
     2  C    1.110032   0.000000
     3  C    2.234257   1.507105   0.000000
     4  O    2.004362   1.202814   2.391520   0.000000
     5  H    2.409019   2.165342   1.089640   3.271891   0.000000
     6  H    2.948513   2.132935   1.091874   2.719986   1.780699
     7  H    2.948517   2.132936   1.091874   2.719977   1.780700
                    6          7
     6  H    0.000000
     7  H    1.759415   0.000000
 Stoichiometry    C2H4O
 Framework group  C1[X(C2H4O)]
 Deg. of freedom    15
 Full point group                 C1      NOp   1
 Largest Abelian subgroup         C1      NOp   1
 Largest concise Abelian subgroup C1      NOp   1
                         Standard orientation:                         
 ---------------------------------------------------------------------
 Center     Atomic      Atomic             Coordinates (Angstroms)
 Number     Number       Type             X           Y           Z
 ---------------------------------------------------------------------
      1          1           0        0.339718    1.514800   -0.000004
      2          6           0        0.238494    0.409393    0.000002
      3          6           0       -1.166797   -0.135145   -0.000000
      4          8           0        1.219965   -0.285931   -0.000000
      5          1           0       -1.912356    0.659498   -0.000012
      6          1           0       -1.308634   -0.766157    0.879713
      7          1           0       -1.308625   -0.766176   -0.879702
 ---------------------------------------------------------------------
 Rotational constants (GHZ):          56.2286916          10.2547607           9.1636281
 Standard basis: def2TZVP (5D, 7F)
 There are   132 symmetry adapted cartesian basis functions of A   symmetry.
 There are   117 symmetry adapted basis functions of A   symmetry.
   117 basis functions,   185 primitive gaussians,   132 cartesian basis functions
    12 alpha electrons       12 beta electrons
       nuclear repulsion energy        69.8261307167 Hartrees.
 NAtoms=    7 NActive=    7 NUniq=    7 SFac= 1.00D+00 NAtFMM=   60 NAOKFM=F Big=F
 Integral buffers will be    131072 words long.
 Raffenetti 2 integral format.
 Two-electron integral symmetry is turned on.
 Nuclear repulsion after empirical dispersion term =       69.8207452544 Hartrees.
 One-electron integrals computed using PRISM.
   1 Symmetry operations used in ECPInt.
 ECPInt:  NShTT=    1225 NPrTT=    3648 LenC2=    1223 LenP2D=    3246.
 LDataN:  DoStor=T MaxTD1= 6 Len=  172
 NBasis=   117 RedAO= T EigKep=  5.58D-04  NBF=   117
 NBsUse=   117 1.00D-06 EigRej= -1.00D+00 NBFU=   117
 Initial guess from the checkpoint file:  "acetaldehyde.chk"
 B after Tr=     0.000000   -0.000000   -0.000000
         Rot=    1.000000    0.000001    0.000000    0.000039 Ang=   0.00 deg.
 Keep R1 ints in memory in canonical form, NReq=27668975.
 Requested convergence on RMS density matrix=1.00D-08 within 128 cycles.
 Requested convergence on MAX density matrix=1.00D-06.
 Requested convergence on             energy=1.00D-06.
 No special actions if energy rises.
 SCF Done:  E(RB3LYP) =  -153.901996823     A.U. after    8 cycles
            NFock=  8  Conv=0.74D-08     -V/T= 2.0048
   1 Symmetry operations used in ECPInt.
 ECPInt:  NShTT=    1225 NPrTT=    3648 LenC2=    1223 LenP2D=    3246.
 LDataN:  DoStor=T MaxTD1= 7 Len=  274
 Calling FoFJK, ICntrl=      2127 FMM=F ISym2X=0 I1Cent= 0 IOpClX= 0 NMat=1 NMatS=1 NMatT=0.
 ***** Axes restored to original set *****
 -------------------------------------------------------------------
 Center     Atomic                   Forces (Hartrees/Bohr)
 Number     Number              X              Y              Z
 -------------------------------------------------------------------
      1        1          -0.000208382    0.000229131    0.000054330
      2        6           0.000076447   -0.000030364   -0.000005896
      3        6          -0.000509445    0.000712268    0.000169995
      4        8           0.000235544   -0.000649965   -0.000155905
      5        1           0.000016473   -0.000097059   -0.000023224
      6        1           0.000194726   -0.000079210   -0.000030956
      7        1           0.000194636   -0.000084801   -0.000008343
 -------------------------------------------------------------------
 Cartesian Forces:  Max     0.000712268 RMS     0.000267635

 GradGradGradGradGradGradGradGradGradGradGradGradGradGradGradGradGradGrad
 Berny optimization.
 Using GEDIIS/GDIIS optimizer.
 FormGI is forming the generalized inverse of G from B-inverse, IUseBI=4.
 Internal  Forces:  Max     0.000699893 RMS     0.000223097
 Search for a local minimum.
 Step number   3 out of a maximum of   31
 All quantities printed in internal units (Hartrees-Bohrs-Radians)
 Mixed Optimization -- En-DIIS/RFO-DIIS
 Update second derivatives using D2CorX and points    1    2    3
 DE= -6.42D-05 DEPred=-6.27D-05 R= 1.02D+00
 TightC=F SS=  1.41D+00  RLast= 2.97D-02 DXNew= 5.0549D-01 8.8966D-02
 Trust test= 1.02D+00 RLast= 2.97D-02 DXMaxT set to 3.01D-01
 ITU=  1  1  0
 Use linear search instead of GDIIS.
     Eigenvalues ---    0.00804   0.00804   0.06483   0.07198   0.15671
     Eigenvalues ---    0.16000   0.16005   0.16906   0.22881   0.31512
     Eigenvalues ---    0.33467   0.34430   0.34551   0.34658   0.91030
 RFO step:  Lambda=-3.41136539D-06 EMin= 8.04303022D-03
 Quartic linear search produced a step of  0.03791.
 Iteration  1 RMS(Cart)=  0.00092662 RMS(Int)=  0.00000114
 Iteration  2 RMS(Cart)=  0.00000094 RMS(Int)=  0.00000081
 Variable       Old X    -DE/DX   Delta X   Delta X   Delta X     New X
                                 (Linear)    (Quad)   (Total)
    R1        2.09766   0.00022   0.00021   0.00059   0.00081   2.09847
    R2        2.84802   0.00036   0.00005   0.00118   0.00123   2.84925
    R3        2.27299   0.00070  -0.00032   0.00079   0.00047   2.27346
    R4        2.05912  -0.00009  -0.00012  -0.00022  -0.00034   2.05878
    R5        2.06334   0.00012   0.00007   0.00031   0.00038   2.06373
    R6        2.06334   0.00012   0.00007   0.00031   0.00038   2.06373
    A1        2.03179  -0.00041  -0.00024  -0.00215  -0.00239   2.02940
    A2        2.09586   0.00008   0.00037   0.00052   0.00088   2.09674
    A3        2.15554   0.00033  -0.00013   0.00164   0.00151   2.15705
    A4        1.95466  -0.00001   0.00021   0.00043   0.00064   1.95530
    A5        1.90703  -0.00004  -0.00007  -0.00046  -0.00053   1.90650
    A6        1.90703  -0.00005  -0.00007  -0.00046  -0.00053   1.90650
    A7        1.90984   0.00010   0.00021   0.00092   0.00113   1.91096
    A8        1.90984   0.00010   0.00021   0.00092   0.00113   1.91097
    A9        1.87366  -0.00010  -0.00051  -0.00144  -0.00195   1.87171
    D1        0.00000   0.00000  -0.00000   0.00004   0.00004   0.00004
    D2       -2.11897  -0.00009  -0.00035  -0.00109  -0.00144  -2.12041
    D3        2.11898   0.00009   0.00035   0.00117   0.00151   2.12049
    D4       -3.14158  -0.00000   0.00000  -0.00003  -0.00003   3.14157
    D5        1.02264  -0.00009  -0.00035  -0.00117  -0.00151   1.02112
    D6       -1.02261   0.00009   0.00035   0.00110   0.00144  -1.02116
         Item               Value     Threshold  Converged?
 Maximum Force            0.000700     0.000450     NO 
 RMS     Force            0.000223     0.000300     YES
 Maximum Displacement     0.002209     0.001800     NO 
 RMS     Displacement     0.000927     0.001200     YES
 Predicted change in Energy=-1.796002D-06
 GradGradGradGradGradGradGradGradGradGradGradGradGradGradGradGradGradGrad

                          Input orientation:                          
 ---------------------------------------------------------------------
 Center     Atomic      Atomic             Coordinates (Angstroms)
 Number     Number       Type             X           Y           Z
 ---------------------------------------------------------------------
      1          1           0        1.015408    0.088007    0.061221
      2          6           0        2.125367    0.055587    0.053496
      3          6           0        2.833117    1.350389    0.363188
      4          8           0        2.697836   -0.973507   -0.192677
      5          1           0        2.133206    2.162379    0.557413
      6          1           0        3.477598    1.617971   -0.476858
      7          1           0        3.477618    1.208903    1.233377
 ---------------------------------------------------------------------
                    Distance matrix (angstroms):
                    1          2          3          4          5
     1  H    0.000000
     2  C    1.110460   0.000000
     3  C    2.233575   1.507757   0.000000
     4  O    2.005453   1.203061   2.393278   0.000000
     5  H    2.408049   2.166233   1.089461   3.273412   0.000000
     6  H    2.948338   2.133271   1.092077   2.721128   1.781428
     7  H    2.948363   2.133270   1.092077   2.721140   1.781429
                    6          7
     6  H    0.000000
     7  H    1.758477   0.000000
 Stoichiometry    C2H4O
 Framework group  C1[X(C2H4O)]
 Deg. of freedom    15
 Full point group                 C1      NOp   1
 Largest Abelian subgroup         C1      NOp   1
 Largest concise Abelian subgroup C1      NOp   1
                         Standard orientation:                         
 ---------------------------------------------------------------------
 Center     Atomic      Atomic             Coordinates (Angstroms)
 Number     Number       Type             X           Y           Z
 ---------------------------------------------------------------------
      1          1           0        0.337850    1.515009    0.000024
      2          6           0        0.238586    0.408994   -0.000012
      3          6           0       -1.167631   -0.134957    0.000001
      4          8           0        1.220903   -0.285563    0.000003
      5          1           0       -1.913113    0.659514    0.000004
      6          1           0       -1.308837   -0.767116    0.879244
      7          1           0       -1.308850   -0.767124   -0.879233
 ---------------------------------------------------------------------
 Rotational constants (GHZ):          56.2651185          10.2420886           9.1539214
 Standard basis: def2TZVP (5D, 7F)
 There are   132 symmetry adapted cartesian basis functions of A   symmetry.
 There are   117 symmetry adapted basis functions of A   symmetry.
   117 basis functions,   185 primitive gaussians,   132 cartesian basis functions
    12 alpha electrons       12 beta electrons
       nuclear repulsion energy        69.8031389310 Hartrees.
 NAtoms=    7 NActive=    7 NUniq=    7 SFac= 1.00D+00 NAtFMM=   60 NAOKFM=F Big=F
 Integral buffers will be    131072 words long.
 Raffenetti 2 integral format.
 Two-electron integral symmetry is turned on.
 Nuclear repulsion after empirical dispersion term =       69.7977540897 Hartrees.
 One-electron integrals computed using PRISM.
   1 Symmetry operations used in ECPInt.
 ECPInt:  NShTT=    1225 NPrTT=    3648 LenC2=    1223 LenP2D=    3246.
 LDataN:  DoStor=T MaxTD1= 6 Len=  172
 NBasis=   117 RedAO= T EigKep=  5.60D-04  NBF=   117
 NBsUse=   117 1.00D-06 EigRej= -1.00D+00 NBFU=   117
 Initial guess from the checkpoint file:  "acetaldehyde.chk"
 B after Tr=    -0.000000    0.000000    0.000000
         Rot=    1.000000   -0.000001   -0.000001   -0.000127 Ang=  -0.01 deg.
 Keep R1 ints in memory in canonical form, NReq=27668975.
 Requested convergence on RMS density matrix=1.00D-08 within 128 cycles.
 Requested convergence on MAX density matrix=1.00D-06.
 Requested convergence on             energy=1.00D-06.
 No special actions if energy rises.
 SCF Done:  E(RB3LYP) =  -153.901998723     A.U. after    6 cycles
            NFock=  6  Conv=0.99D-08     -V/T= 2.0048
   1 Symmetry operations used in ECPInt.
 ECPInt:  NShTT=    1225 NPrTT=    3648 LenC2=    1223 LenP2D=    3246.
 LDataN:  DoStor=T MaxTD1= 7 Len=  274
 Calling FoFJK, ICntrl=      2127 FMM=F ISym2X=0 I1Cent= 0 IOpClX= 0 NMat=1 NMatS=1 NMatT=0.
 ***** Axes restored to original set *****
 -------------------------------------------------------------------
 Center     Atomic                   Forces (Hartrees/Bohr)
 Number     Number              X              Y              Z
 -------------------------------------------------------------------
      1        1           0.000011915    0.000018322    0.000006844
      2        6          -0.000073442    0.000045944    0.000003472
      3        6          -0.000007406    0.000099366    0.000025990
      4        8           0.000033586   -0.000052760   -0.000010022
      5        1          -0.000030253   -0.000083130   -0.000019695
      6        1           0.000032579   -0.000013525   -0.000006575
      7        1           0.000033021   -0.000014217   -0.000000015
 -------------------------------------------------------------------
 Cartesian Forces:  Max     0.000099366 RMS     0.000039911

 GradGradGradGradGradGradGradGradGradGradGradGradGradGradGradGradGradGrad
 Berny optimization.
 Using GEDIIS/GDIIS optimizer.
 FormGI is forming the generalized inverse of G from B-inverse, IUseBI=4.
 Internal  Forces:  Max     0.000107658 RMS     0.000034776
 Search for a local minimum.
 Step number   4 out of a maximum of   31
 All quantities printed in internal units (Hartrees-Bohrs-Radians)
 Mixed Optimization -- En-DIIS/RFO-DIIS
 Swapping is turned off.
 Update second derivatives using D2CorX and points    1    2    3    4
 DE= -1.90D-06 DEPred=-1.80D-06 R= 1.06D+00
 TightC=F SS=  1.41D+00  RLast= 5.26D-03 DXNew= 5.0549D-01 1.5773D-02
 Trust test= 1.06D+00 RLast= 5.26D-03 DXMaxT set to 3.01D-01
 ITU=  1  1  1  0
     Eigenvalues ---    0.00804   0.00804   0.06362   0.07190   0.15012
     Eigenvalues ---    0.16000   0.16052   0.16806   0.23381   0.31665
     Eigenvalues ---    0.33486   0.34551   0.34592   0.34778   0.88464
 En-DIIS/RFO-DIIS/Sim-DIIS IScMMF=       -3 using points:     4    3
 RFO step:  Lambda=-1.38728938D-07.
 DidBck=F Rises=F RFO-DIIS coefs:    1.08064   -0.08064
 Iteration  1 RMS(Cart)=  0.00031524 RMS(Int)=  0.00000010
 Iteration  2 RMS(Cart)=  0.00000009 RMS(Int)=  0.00000003
 Variable       Old X    -DE/DX   Delta X   Delta X   Delta X     New X
                                 (Linear)    (Quad)   (Total)
    R1        2.09847  -0.00001   0.00007  -0.00007  -0.00001   2.09846
    R2        2.84925   0.00000   0.00010  -0.00004   0.00006   2.84931
    R3        2.27346   0.00006   0.00004   0.00003   0.00007   2.27352
    R4        2.05878  -0.00005  -0.00003  -0.00013  -0.00015   2.05863
    R5        2.06373   0.00002   0.00003   0.00004   0.00007   2.06380
    R6        2.06373   0.00002   0.00003   0.00004   0.00007   2.06380
    A1        2.02940  -0.00002  -0.00019  -0.00003  -0.00022   2.02918
    A2        2.09674   0.00002   0.00007   0.00005   0.00012   2.09686
    A3        2.15705   0.00001   0.00012  -0.00002   0.00010   2.15715
    A4        1.95530  -0.00011   0.00005  -0.00071  -0.00065   1.95465
    A5        1.90650   0.00001  -0.00004   0.00010   0.00005   1.90655
    A6        1.90650   0.00001  -0.00004   0.00011   0.00006   1.90656
    A7        1.91096   0.00005   0.00009   0.00029   0.00038   1.91134
    A8        1.91097   0.00005   0.00009   0.00029   0.00038   1.91134
    A9        1.87171  -0.00001  -0.00016  -0.00004  -0.00020   1.87151
    D1        0.00004  -0.00000   0.00000  -0.00020  -0.00020  -0.00016
    D2       -2.12041  -0.00000  -0.00012  -0.00017  -0.00028  -2.12069
    D3        2.12049   0.00000   0.00012  -0.00023  -0.00011   2.12038
    D4        3.14157   0.00000  -0.00000   0.00021   0.00021  -3.14141
    D5        1.02112  -0.00000  -0.00012   0.00024   0.00012   1.02125
    D6       -1.02116   0.00000   0.00012   0.00018   0.00030  -1.02086
         Item               Value     Threshold  Converged?
 Maximum Force            0.000108     0.000450     YES
 RMS     Force            0.000035     0.000300     YES
 Maximum Displacement     0.000835     0.001800     YES
 RMS     Displacement     0.000315     0.001200     YES
 Predicted change in Energy=-6.936457D-08
 Optimization completed.
    -- Stationary point found.
                           ----------------------------
                           !   Optimized Parameters   !
                           ! (Angstroms and Degrees)  !
 --------------------------                            --------------------------
 ! Name  Definition              Value          Derivative Info.                !
 --------------------------------------------------------------------------------
 ! R1    R(1,2)                  1.1105         -DE/DX =    0.0                 !
 ! R2    R(2,3)                  1.5078         -DE/DX =    0.0                 !
 ! R3    R(2,4)                  1.2031         -DE/DX =    0.0001              !
 ! R4    R(3,5)                  1.0895         -DE/DX =    0.0                 !
 ! R5    R(3,6)                  1.0921         -DE/DX =    0.0                 !
 ! R6    R(3,7)                  1.0921         -DE/DX =    0.0                 !
 ! A1    A(1,2,3)              116.2759         -DE/DX =    0.0                 !
 ! A2    A(1,2,4)              120.1341         -DE/DX =    0.0                 !
 ! A3    A(3,2,4)              123.59           -DE/DX =    0.0                 !
 ! A4    A(2,3,5)              112.0305         -DE/DX =   -0.0001              !
 ! A5    A(2,3,6)              109.2344         -DE/DX =    0.0                 !
 ! A6    A(2,3,7)              109.2344         -DE/DX =    0.0                 !
 ! A7    A(5,3,6)              109.4902         -DE/DX =    0.0001              !
 ! A8    A(5,3,7)              109.4903         -DE/DX =    0.0001              !
 ! A9    A(6,3,7)              107.2412         -DE/DX =    0.0                 !
 ! D1    D(1,2,3,5)              0.0024         -DE/DX =    0.0                 !
 ! D2    D(1,2,3,6)           -121.4904         -DE/DX =    0.0                 !
 ! D3    D(1,2,3,7)            121.4952         -DE/DX =    0.0                 !
 ! D4    D(4,2,3,5)           -180.0011         -DE/DX =    0.0                 !
 ! D5    D(4,2,3,6)             58.5061         -DE/DX =    0.0                 !
 ! D6    D(4,2,3,7)            -58.5083         -DE/DX =    0.0                 !
 --------------------------------------------------------------------------------
 GradGradGradGradGradGradGradGradGradGradGradGradGradGradGradGradGradGrad

                          Input orientation:                          
 ---------------------------------------------------------------------
 Center     Atomic      Atomic             Coordinates (Angstroms)
 Number     Number       Type             X           Y           Z
 ---------------------------------------------------------------------
      1          1           0        1.015408    0.088007    0.061221
      2          6           0        2.125367    0.055587    0.053496
      3          6           0        2.833117    1.350389    0.363188
      4          8           0        2.697836   -0.973507   -0.192677
      5          1           0        2.133206    2.162379    0.557413
      6          1           0        3.477598    1.617971   -0.476858
      7          1           0        3.477618    1.208903    1.233377
 ---------------------------------------------------------------------
                    Distance matrix (angstroms):
                    1          2          3          4          5
     1  H    0.000000
     2  C    1.110460   0.000000
     3  C    2.233575   1.507757   0.000000
     4  O    2.005453   1.203061   2.393278   0.000000
     5  H    2.408049   2.166233   1.089461   3.273412   0.000000
     6  H    2.948338   2.133271   1.092077   2.721128   1.781428
     7  H    2.948363   2.133270   1.092077   2.721140   1.781429
                    6          7
     6  H    0.000000
     7  H    1.758477   0.000000
 Stoichiometry    C2H4O
 Framework group  C1[X(C2H4O)]
 Deg. of freedom    15
 Full point group                 C1      NOp   1
 Largest Abelian subgroup         C1      NOp   1
 Largest concise Abelian subgroup C1      NOp   1
                         Standard orientation:                         
 ---------------------------------------------------------------------
 Center     Atomic      Atomic             Coordinates (Angstroms)
 Number     Number       Type             X           Y           Z
 ---------------------------------------------------------------------
      1          1           0        0.337850    1.515009    0.000024
      2          6           0        0.238586    0.408994   -0.000012
      3          6           0       -1.167631   -0.134957    0.000001
      4          8           0        1.220903   -0.285563    0.000003
      5          1           0       -1.913113    0.659514    0.000004
      6          1           0       -1.308837   -0.767116    0.879244
      7          1           0       -1.308850   -0.767124   -0.879233
 ---------------------------------------------------------------------
 Rotational constants (GHZ):          56.2651185          10.2420886           9.1539214

 **********************************************************************

            Population analysis using the SCF Density.

 **********************************************************************

 Orbital symmetries:
       Occupied  (A) (A) (A) (A) (A) (A) (A) (A) (A) (A) (A) (A)
       Virtual   (A) (A) (A) (A) (A) (A) (A) (A) (A) (A) (A) (A)
                 (A) (A) (A) (A) (A) (A) (A) (A) (A) (A) (A) (A)
                 (A) (A) (A) (A) (A) (A) (A) (A) (A) (A) (A) (A)
                 (A) (A) (A) (A) (A) (A) (A) (A) (A) (A) (A) (A)
                 (A) (A) (A) (A) (A) (A) (A) (A) (A) (A) (A) (A)
                 (A) (A) (A) (A) (A) (A) (A) (A) (A) (A) (A) (A)
                 (A) (A) (A) (A) (A) (A) (A) (A) (A) (A) (A) (A)
                 (A) (A) (A) (A) (A) (A) (A) (A) (A) (A) (A) (A)
                 (A) (A) (A) (A) (A) (A) (A) (A) (A)
 The electronic state is 1-A.
 Alpha  occ. eigenvalues --  -19.13168 -10.26997 -10.18584  -1.05914  -0.75921
 Alpha  occ. eigenvalues --   -0.58930  -0.48726  -0.45413  -0.44648  -0.40739
 Alpha  occ. eigenvalues --   -0.37384  -0.26749
 Alpha virt. eigenvalues --   -0.04286   0.04173   0.06450   0.10788   0.11290
 Alpha virt. eigenvalues --    0.14020   0.15882   0.20395   0.20602   0.24256
 Alpha virt. eigenvalues --    0.27874   0.31395   0.37686   0.38648   0.39486
 Alpha virt. eigenvalues --    0.42246   0.42995   0.46355   0.51314   0.52696
 Alpha virt. eigenvalues --    0.53155   0.58167   0.63084   0.74730   0.78984
 Alpha virt. eigenvalues --    0.85761   0.87149   0.91195   0.94434   1.04227
 Alpha virt. eigenvalues --    1.06108   1.12119   1.20863   1.36527   1.37746
 Alpha virt. eigenvalues --    1.47284   1.48124   1.50042   1.51850   1.52894
 Alpha virt. eigenvalues --    1.54605   1.63257   1.68091   1.81014   1.83845
 Alpha virt. eigenvalues --    1.90534   1.90775   1.96584   2.01937   2.09344
 Alpha virt. eigenvalues --    2.15487   2.21643   2.27628   2.32223   2.34194
 Alpha virt. eigenvalues --    2.36223   2.50807   2.51274   2.53633   2.67375
 Alpha virt. eigenvalues --    2.67683   2.73530   2.82090   2.82474   2.87819
 Alpha virt. eigenvalues --    2.89938   2.92552   2.98782   3.03245   3.06341
 Alpha virt. eigenvalues --    3.11207   3.13759   3.17840   3.28413   3.30080
 Alpha virt. eigenvalues --    3.38999   3.44953   3.50393   3.66102   3.75879
 Alpha virt. eigenvalues --    3.79499   3.85351   3.88405   3.95521   4.09486
 Alpha virt. eigenvalues --    4.25590   4.31482   4.42560   4.54879   4.65189
 Alpha virt. eigenvalues --    5.17424   5.17913   5.54207   5.64686   6.07324
 Alpha virt. eigenvalues --    6.30712   6.32504   6.36141   6.42827   6.77093
 Alpha virt. eigenvalues --    6.89143   7.03206  22.25251  22.66355  43.64260
          Condensed to atoms (all electrons):
               1          2          3          4          5          6
     1  H    0.718369   0.429084  -0.182078  -0.065738   0.015512   0.007904
     2  C    0.429084   4.650277   0.215012   0.636427  -0.015520  -0.013260
     3  C   -0.182078   0.215012   5.278091  -0.112487   0.345425   0.366732
     4  O   -0.065738   0.636427  -0.112487   7.794785   0.006585   0.003209
     5  H    0.015512  -0.015520   0.345425   0.006585   0.585598  -0.019246
     6  H    0.007904  -0.013260   0.366732   0.003209  -0.019246   0.535799
     7  H    0.007904  -0.013260   0.366729   0.003210  -0.019244  -0.012259
               7
     1  H    0.007904
     2  C   -0.013260
     3  C    0.366729
     4  O    0.003210
     5  H   -0.019244
     6  H   -0.012259
     7  H    0.535801
 Mulliken charges:
               1
     1  H    0.069043
     2  C    0.111240
     3  C   -0.277424
     4  O   -0.265990
     5  H    0.100890
     6  H    0.131121
     7  H    0.131119
 Sum of Mulliken charges =  -0.00000
 Mulliken charges with hydrogens summed into heavy atoms:
               1
     2  C    0.180284
     3  C    0.085707
     4  O   -0.265990
 Electronic spatial extent (au):  <R**2>=            167.1148
 Charge=              0.0000 electrons
 Dipole moment (field-independent basis, Debye):
    X=             -2.4901    Y=              1.0575    Z=             -0.0000  Tot=              2.7053
 Quadrupole moment (field-independent basis, Debye-Ang):
   XX=            -21.2454   YY=            -18.1343   ZZ=            -17.9297
   XY=              1.1858   XZ=             -0.0000   YZ=              0.0000
 Traceless Quadrupole moment (field-independent basis, Debye-Ang):
   XX=             -2.1423   YY=              0.9688   ZZ=              1.1735
   XY=              1.1858   XZ=             -0.0000   YZ=              0.0000
 Octapole moment (field-independent basis, Debye-Ang**2):
  XXX=             -0.9575  YYY=              0.1295  ZZZ=              0.0000  XYY=              0.5980
  XXY=              0.7083  XXZ=              0.0000  XZZ=              0.9776  YZZ=             -1.2106
  YYZ=              0.0001  XYZ=              0.0000
 Hexadecapole moment (field-independent basis, Debye-Ang**3):
 XXXX=           -152.9465 YYYY=            -45.0767 ZZZZ=            -23.9455 XXXY=             -2.0225
 XXXZ=             -0.0000 YYYX=             -0.2181 YYYZ=              0.0001 ZZZX=             -0.0000
 ZZZY=             -0.0000 XXYY=            -31.1162 XXZZ=            -28.0020 YYZZ=            -11.0900
 XXYZ=              0.0000 YYXZ=              0.0000 ZZXY=              0.7814
 N-N= 6.979775408969D+01 E-N=-4.995356339263D+02  KE= 1.531664903555D+02
 1\1\GINC-ROBERTS-IMAC-PRO\FOpt\RB3LYP\def2TZVP\C2H4O1\RPATON\07-May-20
 18\0\\#opt freq B3LYP/def2tzvp empiricaldispersion=GD3BJ\\acetaldehyde
  = [H]C(C)[D=O\\0,1\H,1.0154075071,0.088006951,0.0612208246\C,2.125367
 177,0.055587255,0.0534959939\C,2.8331166881,1.3503892016,0.3631875143\
 O,2.6978363507,-0.9735065754,-0.1926769345\H,2.1332063305,2.162379465,
 0.5574131429\H,3.4775975262,1.6179705573,-0.4768580078\H,3.4776184203,
 1.2089031454,1.2333774665\\Version=EM64M-G16RevB.01\State=1-A\HF=-153.
 9019987\RMSD=9.897e-09\RMSF=3.991e-05\Dipole=-0.2962496,0.9942458,0.23
 78209\Quadrupole=0.8961511,-1.6256627,0.7295115,0.5667185,0.1355562,-0
 .5975514\PG=C01 [X(C2H4O1)]\\@


 ROSE IS A RED
 TY COBB IS BLUE
 'CAUSE PETE JUST HIT
 NO. 4592.
 Job cpu time:       0 days  0 hours  1 minutes 44.1 seconds.
 Elapsed time:       0 days  0 hours  0 minutes 26.9 seconds.
 File lengths (MBytes):  RWF=     10 Int=      0 D2E=      0 Chk=      2 Scr=      1
 Normal termination of Gaussian 16 at Mon May  7 11:09:24 2018.
 Link1:  Proceeding to internal job step number  2.
 --------------------------------------------------------------------
 #N Geom=AllCheck Guess=TCheck SCRF=Check GenChk RB3LYP/def2TZVP Freq
 --------------------------------------------------------------------
 1/10=4,29=7,30=1,38=1,40=1/1,3;
 2/12=2,40=1/2;
 3/5=44,7=101,11=2,14=-4,25=1,30=1,70=2,71=2,74=-5,116=1,124=41,140=1/1,2,3;
 4/5=101/1;
 5/5=2,38=6,98=1/2;
 8/6=4,10=90,11=11/1;
 11/6=1,8=1,9=11,15=111,16=1/1,2,10;
 10/6=1/2;
 6/7=2,8=2,9=2,10=2,28=1/1;
 7/8=1,10=1,25=1/1,2,3,16;
 1/10=4,30=1/3;
 99//99;
 Structure from the checkpoint file:  "acetaldehyde.chk"
 --------------------------
 acetaldehyde = [H]C(C)[D=O
 --------------------------
 Charge =  0 Multiplicity = 1
 Redundant internal coordinates found in file.  (old form).
 H,0,1.0154075071,0.088006951,0.0612208246
 C,0,2.125367177,0.055587255,0.0534959939
 C,0,2.8331166881,1.3503892016,0.3631875143
 O,0,2.6978363507,-0.9735065754,-0.1926769345
 H,0,2.1332063305,2.162379465,0.5574131429
 H,0,3.4775975262,1.6179705573,-0.4768580078
 H,0,3.4776184203,1.2089031454,1.2333774665
 Recover connectivity data from disk.

 GradGradGradGradGradGradGradGradGradGradGradGradGradGradGradGradGradGrad
 Berny optimization.
 Initialization pass.
                           ----------------------------
                           !    Initial Parameters    !
                           ! (Angstroms and Degrees)  !
 --------------------------                            --------------------------
 ! Name  Definition              Value          Derivative Info.                !
 --------------------------------------------------------------------------------
 ! R1    R(1,2)                  1.1105         calculate D2E/DX2 analytically  !
 ! R2    R(2,3)                  1.5078         calculate D2E/DX2 analytically  !
 ! R3    R(2,4)                  1.2031         calculate D2E/DX2 analytically  !
 ! R4    R(3,5)                  1.0895         calculate D2E/DX2 analytically  !
 ! R5    R(3,6)                  1.0921         calculate D2E/DX2 analytically  !
 ! R6    R(3,7)                  1.0921         calculate D2E/DX2 analytically  !
 ! A1    A(1,2,3)              116.2759         calculate D2E/DX2 analytically  !
 ! A2    A(1,2,4)              120.1341         calculate D2E/DX2 analytically  !
 ! A3    A(3,2,4)              123.59           calculate D2E/DX2 analytically  !
 ! A4    A(2,3,5)              112.0305         calculate D2E/DX2 analytically  !
 ! A5    A(2,3,6)              109.2344         calculate D2E/DX2 analytically  !
 ! A6    A(2,3,7)              109.2344         calculate D2E/DX2 analytically  !
 ! A7    A(5,3,6)              109.4902         calculate D2E/DX2 analytically  !
 ! A8    A(5,3,7)              109.4903         calculate D2E/DX2 analytically  !
 ! A9    A(6,3,7)              107.2412         calculate D2E/DX2 analytically  !
 ! D1    D(1,2,3,5)              0.0024         calculate D2E/DX2 analytically  !
 ! D2    D(1,2,3,6)           -121.4904         calculate D2E/DX2 analytically  !
 ! D3    D(1,2,3,7)            121.4952         calculate D2E/DX2 analytically  !
 ! D4    D(4,2,3,5)            179.9989         calculate D2E/DX2 analytically  !
 ! D5    D(4,2,3,6)             58.5061         calculate D2E/DX2 analytically  !
 ! D6    D(4,2,3,7)            -58.5083         calculate D2E/DX2 analytically  !
 --------------------------------------------------------------------------------
 Trust Radius=3.00D-01 FncErr=1.00D-07 GrdErr=1.00D-07 EigMax=2.50D+02 EigMin=1.00D-04
 Number of steps in this run=      2 maximum allowed number of steps=      2.
 GradGradGradGradGradGradGradGradGradGradGradGradGradGradGradGradGradGrad

                          Input orientation:                          
 ---------------------------------------------------------------------
 Center     Atomic      Atomic             Coordinates (Angstroms)
 Number     Number       Type             X           Y           Z
 ---------------------------------------------------------------------
      1          1           0        1.015408    0.088007    0.061221
      2          6           0        2.125367    0.055587    0.053496
      3          6           0        2.833117    1.350389    0.363188
      4          8           0        2.697836   -0.973507   -0.192677
      5          1           0        2.133206    2.162379    0.557413
      6          1           0        3.477598    1.617971   -0.476858
      7          1           0        3.477618    1.208903    1.233377
 ---------------------------------------------------------------------
                    Distance matrix (angstroms):
                    1          2          3          4          5
     1  H    0.000000
     2  C    1.110460   0.000000
     3  C    2.233575   1.507757   0.000000
     4  O    2.005453   1.203061   2.393278   0.000000
     5  H    2.408049   2.166233   1.089461   3.273412   0.000000
     6  H    2.948338   2.133271   1.092077   2.721128   1.781428
     7  H    2.948363   2.133270   1.092077   2.721140   1.781429
                    6          7
     6  H    0.000000
     7  H    1.758477   0.000000
 Stoichiometry    C2H4O
 Framework group  C1[X(C2H4O)]
 Deg. of freedom    15
 Full point group                 C1      NOp   1
 Largest Abelian subgroup         C1      NOp   1
 Largest concise Abelian subgroup C1      NOp   1
                         Standard orientation:                         
 ---------------------------------------------------------------------
 Center     Atomic      Atomic             Coordinates (Angstroms)
 Number     Number       Type             X           Y           Z
 ---------------------------------------------------------------------
      1          1           0        0.337850    1.515009    0.000024
      2          6           0        0.238586    0.408994   -0.000012
      3          6           0       -1.167631   -0.134957    0.000001
      4          8           0        1.220903   -0.285563    0.000003
      5          1           0       -1.913113    0.659514    0.000004
      6          1           0       -1.308837   -0.767116    0.879244
      7          1           0       -1.308850   -0.767124   -0.879233
 ---------------------------------------------------------------------
 Rotational constants (GHZ):          56.2651185          10.2420886           9.1539214
 Standard basis: def2TZVP (5D, 7F)
 There are   132 symmetry adapted cartesian basis functions of A   symmetry.
 There are   117 symmetry adapted basis functions of A   symmetry.
   117 basis functions,   185 primitive gaussians,   132 cartesian basis functions
    12 alpha electrons       12 beta electrons
       nuclear repulsion energy        69.8031389310 Hartrees.
 NAtoms=    7 NActive=    7 NUniq=    7 SFac= 1.00D+00 NAtFMM=   60 NAOKFM=F Big=F
 Integral buffers will be    131072 words long.
 Raffenetti 2 integral format.
 Two-electron integral symmetry is turned on.
 Nuclear repulsion after empirical dispersion term =       69.7977540897 Hartrees.
 One-electron integrals computed using PRISM.
   1 Symmetry operations used in ECPInt.
 ECPInt:  NShTT=    1225 NPrTT=    3648 LenC2=    1223 LenP2D=    3246.
 LDataN:  DoStor=T MaxTD1= 6 Len=  172
 NBasis=   117 RedAO= T EigKep=  5.60D-04  NBF=   117
 NBsUse=   117 1.00D-06 EigRej= -1.00D+00 NBFU=   117
 Initial guess from the checkpoint file:  "acetaldehyde.chk"
 B after Tr=     0.000000   -0.000000   -0.000000
         Rot=    1.000000   -0.000000   -0.000000    0.000000 Ang=   0.00 deg.
 Keep R1 ints in memory in canonical form, NReq=27668975.
 Requested convergence on RMS density matrix=1.00D-08 within 128 cycles.
 Requested convergence on MAX density matrix=1.00D-06.
 Requested convergence on             energy=1.00D-06.
 No special actions if energy rises.
 SCF Done:  E(RB3LYP) =  -153.901998723     A.U. after    1 cycles
            NFock=  1  Conv=0.76D-08     -V/T= 2.0048
 DoSCS=F DFT=T ScalE2(SS,OS)=  1.000000  1.000000
 Range of M.O.s used for correlation:     1   117
 NBasis=   117 NAE=    12 NBE=    12 NFC=     0 NFV=     0
 NROrb=    117 NOA=    12 NOB=    12 NVA=   105 NVB=   105

 **** Warning!!: The largest alpha MO coefficient is  0.18296727D+02

   1 Symmetry operations used in ECPInt.
 ECPInt:  NShTT=    1225 NPrTT=    3648 LenC2=    1223 LenP2D=    3246.
 LDataN:  DoStor=T MaxTD1= 7 Len=  274
 Symmetrizing basis deriv contribution to polar:
 IMax=3 JMax=2 DiffMx= 0.00D+00
 G2DrvN: will do     8 centers at a time, making    1 passes.
 Calling FoFCou, ICntrl=  3107 FMM=F I1Cent=   0 AccDes= 0.00D+00.
 End of G2Drv F.D. properties file   721 does not exist.
 End of G2Drv F.D. properties file   722 does not exist.
 End of G2Drv F.D. properties file   788 does not exist.
          IDoAtm=1111111
          Differentiating once with respect to electric field.
                with respect to dipole field.
          Differentiating once with respect to nuclear coordinates.
 Keep R1 ints in memory in canonical form, NReq=27661695.
          There are    24 degrees of freedom in the 1st order CPHF.  IDoFFX=6 NUNeed=     3.
     21 vectors produced by pass  0 Test12= 5.25D-15 4.17D-09 XBig12= 2.38D+01 3.19D+00.
 AX will form    21 AO Fock derivatives at one time.
     21 vectors produced by pass  1 Test12= 5.25D-15 4.17D-09 XBig12= 6.45D+00 7.31D-01.
     21 vectors produced by pass  2 Test12= 5.25D-15 4.17D-09 XBig12= 4.11D-02 4.81D-02.
     21 vectors produced by pass  3 Test12= 5.25D-15 4.17D-09 XBig12= 1.41D-04 3.33D-03.
     21 vectors produced by pass  4 Test12= 5.25D-15 4.17D-09 XBig12= 2.32D-07 1.43D-04.
     14 vectors produced by pass  5 Test12= 5.25D-15 4.17D-09 XBig12= 2.53D-10 2.86D-06.
      4 vectors produced by pass  6 Test12= 5.25D-15 4.17D-09 XBig12= 3.40D-13 1.57D-07.
 InvSVY:  IOpt=1 It=  1 EMax= 1.78D-15
 Solved reduced A of dimension   123 with    24 vectors.
 Isotropic polarizability for W=    0.000000       27.95 Bohr**3.
 End of Minotr F.D. properties file   721 does not exist.
 End of Minotr F.D. properties file   722 does not exist.
 End of Minotr F.D. properties file   788 does not exist.

 **********************************************************************

            Population analysis using the SCF Density.

 **********************************************************************

 Orbital symmetries:
       Occupied  (A) (A) (A) (A) (A) (A) (A) (A) (A) (A) (A) (A)
       Virtual   (A) (A) (A) (A) (A) (A) (A) (A) (A) (A) (A) (A)
                 (A) (A) (A) (A) (A) (A) (A) (A) (A) (A) (A) (A)
                 (A) (A) (A) (A) (A) (A) (A) (A) (A) (A) (A) (A)
                 (A) (A) (A) (A) (A) (A) (A) (A) (A) (A) (A) (A)
                 (A) (A) (A) (A) (A) (A) (A) (A) (A) (A) (A) (A)
                 (A) (A) (A) (A) (A) (A) (A) (A) (A) (A) (A) (A)
                 (A) (A) (A) (A) (A) (A) (A) (A) (A) (A) (A) (A)
                 (A) (A) (A) (A) (A) (A) (A) (A) (A) (A) (A) (A)
                 (A) (A) (A) (A) (A) (A) (A) (A) (A)
 The electronic state is 1-A.
 Alpha  occ. eigenvalues --  -19.13168 -10.26997 -10.18584  -1.05914  -0.75921
 Alpha  occ. eigenvalues --   -0.58930  -0.48726  -0.45413  -0.44648  -0.40739
 Alpha  occ. eigenvalues --   -0.37384  -0.26749
 Alpha virt. eigenvalues --   -0.04286   0.04173   0.06450   0.10788   0.11290
 Alpha virt. eigenvalues --    0.14020   0.15882   0.20395   0.20602   0.24256
 Alpha virt. eigenvalues --    0.27873   0.31395   0.37686   0.38648   0.39486
 Alpha virt. eigenvalues --    0.42246   0.42995   0.46355   0.51314   0.52696
 Alpha virt. eigenvalues --    0.53155   0.58167   0.63084   0.74730   0.78984
 Alpha virt. eigenvalues --    0.85761   0.87149   0.91195   0.94434   1.04227
 Alpha virt. eigenvalues --    1.06108   1.12119   1.20863   1.36527   1.37746
 Alpha virt. eigenvalues --    1.47284   1.48124   1.50042   1.51850   1.52894
 Alpha virt. eigenvalues --    1.54605   1.63257   1.68091   1.81014   1.83845
 Alpha virt. eigenvalues --    1.90534   1.90775   1.96584   2.01937   2.09344
 Alpha virt. eigenvalues --    2.15487   2.21643   2.27628   2.32223   2.34194
 Alpha virt. eigenvalues --    2.36223   2.50806   2.51274   2.53633   2.67375
 Alpha virt. eigenvalues --    2.67683   2.73530   2.82090   2.82474   2.87819
 Alpha virt. eigenvalues --    2.89938   2.92552   2.98782   3.03245   3.06341
 Alpha virt. eigenvalues --    3.11207   3.13759   3.17840   3.28413   3.30080
 Alpha virt. eigenvalues --    3.38999   3.44953   3.50393   3.66102   3.75879
 Alpha virt. eigenvalues --    3.79499   3.85351   3.88405   3.95521   4.09486
 Alpha virt. eigenvalues --    4.25590   4.31482   4.42560   4.54879   4.65189
 Alpha virt. eigenvalues --    5.17424   5.17913   5.54207   5.64686   6.07324
 Alpha virt. eigenvalues --    6.30712   6.32504   6.36141   6.42827   6.77093
 Alpha virt. eigenvalues --    6.89143   7.03206  22.25251  22.66355  43.64260
          Condensed to atoms (all electrons):
               1          2          3          4          5          6
     1  H    0.718369   0.429084  -0.182078  -0.065738   0.015512   0.007904
     2  C    0.429084   4.650277   0.215011   0.636427  -0.015520  -0.013260
     3  C   -0.182078   0.215011   5.278093  -0.112487   0.345425   0.366732
     4  O   -0.065738   0.636427  -0.112487   7.794784   0.006585   0.003209
     5  H    0.015512  -0.015520   0.345425   0.006585   0.585598  -0.019246
     6  H    0.007904  -0.013260   0.366732   0.003209  -0.019246   0.535798
     7  H    0.007904  -0.013260   0.366729   0.003210  -0.019244  -0.012259
               7
     1  H    0.007904
     2  C   -0.013260
     3  C    0.366729
     4  O    0.003210
     5  H   -0.019244
     6  H   -0.012259
     7  H    0.535801
 Mulliken charges:
               1
     1  H    0.069043
     2  C    0.111241
     3  C   -0.277425
     4  O   -0.265990
     5  H    0.100890
     6  H    0.131121
     7  H    0.131120
 Sum of Mulliken charges =  -0.00000
 Mulliken charges with hydrogens summed into heavy atoms:
               1
     2  C    0.180284
     3  C    0.085706
     4  O   -0.265990
 APT charges:
               1
     1  H   -0.081898
     2  C    0.785144
     3  C   -0.105788
     4  O   -0.652840
     5  H   -0.000540
     6  H    0.027961
     7  H    0.027961
 Sum of APT charges =  -0.00000
 APT charges with hydrogens summed into heavy atoms:
               1
     2  C    0.703246
     3  C   -0.050406
     4  O   -0.652840
 Electronic spatial extent (au):  <R**2>=            167.1148
 Charge=              0.0000 electrons
 Dipole moment (field-independent basis, Debye):
    X=             -2.4901    Y=              1.0575    Z=             -0.0000  Tot=              2.7053
 Quadrupole moment (field-independent basis, Debye-Ang):
   XX=            -21.2454   YY=            -18.1343   ZZ=            -17.9297
   XY=              1.1858   XZ=             -0.0000   YZ=              0.0000
 Traceless Quadrupole moment (field-independent basis, Debye-Ang):
   XX=             -2.1423   YY=              0.9688   ZZ=              1.1735
   XY=              1.1858   XZ=             -0.0000   YZ=              0.0000
 Octapole moment (field-independent basis, Debye-Ang**2):
  XXX=             -0.9575  YYY=              0.1295  ZZZ=              0.0000  XYY=              0.5980
  XXY=              0.7083  XXZ=              0.0000  XZZ=              0.9776  YZZ=             -1.2106
  YYZ=              0.0001  XYZ=              0.0000
 Hexadecapole moment (field-independent basis, Debye-Ang**3):
 XXXX=           -152.9465 YYYY=            -45.0767 ZZZZ=            -23.9454 XXXY=             -2.0225
 XXXZ=             -0.0000 YYYX=             -0.2181 YYYZ=              0.0001 ZZZX=             -0.0000
 ZZZY=             -0.0000 XXYY=            -31.1162 XXZZ=            -28.0020 YYZZ=            -11.0900
 XXYZ=              0.0000 YYXZ=              0.0000 ZZXY=              0.7814
 N-N= 6.979775408969D+01 E-N=-4.995356329207D+02  KE= 1.531664897450D+02
  Exact polarizability:  32.924  -1.341  29.301   0.000   0.000  21.625
 Approx polarizability:  45.050  -5.959  40.486   0.000  -0.000  30.024
   1 Symmetry operations used in ECPInt.
 ECPInt:  NShTT=    1225 NPrTT=    3648 LenC2=    1223 LenP2D=    3246.
 LDataN:  DoStor=T MaxTD1= 8 Len=  415
 Calling FoFJK, ICntrl=    100127 FMM=F ISym2X=0 I1Cent= 0 IOpClX= 0 NMat=1 NMatS=1 NMatT=0.
 Full mass-weighted force constant matrix:
 Low frequencies --- -175.8828  -11.3983   -4.0166    0.0011    0.0011    0.0014
 Low frequencies ---    3.3858  513.0858  751.3821
 ******    1 imaginary frequencies (negative Signs) ****** 
 Diagonal vibrational polarizability:
        3.2116661       1.8958396       6.0052647
 Harmonic frequencies (cm**-1), IR intensities (KM/Mole), Raman scattering
 activities (A**4/AMU), depolarization ratios for plane and unpolarized
 incident light, reduced masses (AMU), force constants (mDyne/A),
 and normal coordinates:
                      1                      2                      3
                      A                      A                      A
 Frequencies --   -175.8807               513.0858               751.3821
 Red. masses --      1.1941                 2.6929                 1.1766
 Frc consts  --      0.0218                 0.4177                 0.3914
 IR Inten    --      6.6782                12.4218                 1.5426
  Atom  AN      X      Y      Z        X      Y      Z        X      Y      Z
     1   1     0.00   0.00  -0.41    -0.20  -0.18   0.00    -0.00  -0.00   0.57
     2   6     0.00  -0.00  -0.09    -0.01  -0.20   0.00     0.00   0.00  -0.09
     3   6     0.00  -0.00   0.03    -0.18   0.03  -0.00     0.00  -0.00  -0.07
     4   8    -0.00   0.00   0.07     0.21   0.10  -0.00    -0.00   0.00   0.04
     5   1     0.00   0.00   0.51     0.21   0.40  -0.00     0.00   0.00   0.30
     6   1     0.19  -0.42  -0.25    -0.53   0.12   0.01     0.48   0.18   0.15
     7   1    -0.19   0.42  -0.25    -0.53   0.12  -0.01    -0.48  -0.18   0.15
                      4                      5                      6
                      A                      A                      A
 Frequencies --    929.7926              1098.3728              1136.2547
 Red. masses --      2.3136                 1.9654                 1.7190
 Frc consts  --      1.1785                 1.3970                 1.3076
 IR Inten    --     13.1659                40.5222                 0.3395
  Atom  AN      X      Y      Z        X      Y      Z        X      Y      Z
     1   1    -0.40  -0.09  -0.00    -0.15  -0.18  -0.00     0.00   0.00  -0.70
     2   6    -0.15  -0.12   0.00    -0.12  -0.17   0.00     0.00   0.00   0.21
     3   6     0.26   0.01  -0.00     0.00   0.19  -0.00    -0.00  -0.00  -0.14
     4   8    -0.09   0.04  -0.00     0.06   0.02  -0.00    -0.00  -0.00  -0.04
     5   1     0.70   0.42  -0.00    -0.44  -0.25   0.00     0.00   0.00   0.28
     6   1    -0.05   0.14   0.04     0.53  -0.08  -0.10     0.35   0.23   0.10
     7   1    -0.05   0.14  -0.04     0.53  -0.08   0.10    -0.35  -0.23   0.10
                      7                      8                      9
                      A                      A                      A
 Frequencies --   1374.0088              1428.3721              1467.0223
 Red. masses --      1.2059                 1.1977                 1.0637
 Frc consts  --      1.3413                 1.4398                 1.3488
[...]
     4   8    -0.00   0.02   0.00    -0.03   0.07   0.00     0.01  -0.01   0.00
     5   1     0.30   0.30  -0.00    -0.05  -0.09   0.00    -0.37  -0.40   0.00
     6   1     0.45   0.25   0.30    -0.16  -0.06  -0.08    -0.15   0.48   0.32
     7   1     0.45   0.25  -0.30    -0.16  -0.06   0.08    -0.15   0.48  -0.32
                     10                     11                     12
                      A                      A                      A
 Frequencies --   1475.3487              1808.1767              2874.8396
 Red. masses --      1.0469                10.0298                 1.0827
 Frc consts  --      1.3427                19.3207                 5.2722
 IR Inten    --      8.4785               178.0565               127.7875
  Atom  AN      X      Y      Z        X      Y      Z        X      Y      Z
     1   1    -0.00  -0.00   0.04    -0.36  -0.21   0.00     0.11   0.99   0.00
     2   6     0.00   0.00  -0.03     0.60  -0.37   0.00    -0.01  -0.08  -0.00
     3   6    -0.00   0.00  -0.05    -0.04   0.03   0.00    -0.00   0.00  -0.00
     4   8     0.00  -0.00   0.01    -0.39   0.28  -0.00     0.00  -0.00  -0.00
     5   1     0.00   0.00   0.73    -0.23  -0.15   0.00     0.03  -0.04   0.00
     6   1    -0.43   0.22   0.05     0.07   0.04   0.04    -0.00  -0.00   0.00
     7   1     0.43  -0.22   0.05     0.07   0.04  -0.04    -0.00  -0.00  -0.00
                     13                     14                     15
                      A                      A                      A
 Frequencies --   3038.8301              3101.7183              3125.7552
 Red. masses --      1.0347                 1.0994                 1.1037
 Frc consts  --      5.6296                 6.2319                 6.3535
 IR Inten    --      1.5836                 3.6160                17.4549
  Atom  AN      X      Y      Z        X      Y      Z        X      Y      Z
     1   1     0.01   0.02   0.00    -0.00   0.00  -0.00     0.01   0.04   0.00
     2   6    -0.00  -0.00  -0.00    -0.00  -0.00  -0.00    -0.00  -0.01  -0.00
     3   6     0.04   0.03  -0.00    -0.00   0.00  -0.09     0.04  -0.08  -0.00
     4   8    -0.00   0.00   0.00    -0.00  -0.00   0.00     0.00   0.00  -0.00
     5   1    -0.34   0.37   0.00     0.00  -0.00  -0.02    -0.59   0.63   0.00
     6   1    -0.07  -0.35   0.50    -0.09  -0.42   0.56     0.05   0.19  -0.29
     7   1    -0.07  -0.35  -0.50     0.09   0.42   0.56     0.05   0.19   0.29

 -------------------
 - Thermochemistry -
 -------------------
 Temperature   298.150 Kelvin.  Pressure   1.00000 Atm.
 Atom     1 has atomic number  1 and mass   1.00783
 Atom     2 has atomic number  6 and mass  12.00000
 Atom     3 has atomic number  6 and mass  12.00000
 Atom     4 has atomic number  8 and mass  15.99491
 Atom     5 has atomic number  1 and mass   1.00783
 Atom     6 has atomic number  1 and mass   1.00783
 Atom     7 has atomic number  1 and mass   1.00783
 Molecular mass:    44.02621 amu.
 Principal axes and moments of inertia in atomic units:
                           1         2         3
     Eigenvalues --    32.07567 176.20832 197.15498
           X            0.99957   0.02942   0.00000
           Y           -0.02942   0.99957   0.00001
           Z            0.00000  -0.00001   1.00000
 This molecule is an asymmetric top.
 Rotational symmetry number  1.
 Rotational temperatures (Kelvin)      2.70030     0.49154     0.43932
 Rotational constants (GHZ):          56.26512    10.24209     9.15392
    1 imaginary frequencies ignored.
 Zero-point vibrational energy     144287.3 (Joules/Mol)
                                   34.48550 (Kcal/Mol)
 Warning -- explicit consideration of   1 degrees of freedom as
           vibrations may cause significant error
 Vibrational temperatures:    738.22  1081.07  1337.76  1580.31  1634.82
          (Kelvin)           1976.89  2055.11  2110.72  2122.70  2601.56
                             4136.25  4372.20  4462.68  4497.26
 
 Zero-point correction=                           0.054956 (Hartree/Particle)
 Thermal correction to Energy=                    0.058219
 Thermal correction to Enthalpy=                  0.059163
 Thermal correction to Gibbs Free Energy=         0.030611
 Sum of electronic and zero-point Energies=           -153.847043
 Sum of electronic and thermal Energies=              -153.843780
 Sum of electronic and thermal Enthalpies=            -153.842835
 Sum of electronic and thermal Free Energies=         -153.871388
 
                     E (Thermal)             CV                S
                      KCal/Mol        Cal/Mol-Kelvin    Cal/Mol-Kelvin
 Total                   36.533              9.312             60.093
 Electronic               0.000              0.000              0.000
 Translational            0.889              2.981             37.273
 Rotational               0.889              2.981             21.638
 Vibrational             34.756              3.350              1.183
 Vibration     1          0.868              1.221              0.626
                       Q            Log10(Q)             Ln(Q)
 Total Bot       0.831541D-14        -14.080116        -32.420666
 Total V=0       0.157737D+12         11.197934         25.784195
 Vib (Bot)       0.606055D-25        -25.217488        -58.065411
 Vib (Bot)    1  0.316584D+00         -0.499512         -1.150168
 Vib (V=0)       0.114964D+01          0.060562          0.139450
 Vib (V=0)    1  0.109180D+01          0.038142          0.087826
 Electronic      0.100000D+01          0.000000          0.000000
 Translational   0.114821D+08          7.060021         16.256299
 Rotational      0.119495D+05          4.077351          9.388447
 ***** Axes restored to original set *****
 -------------------------------------------------------------------
 Center     Atomic                   Forces (Hartrees/Bohr)
 Number     Number              X              Y              Z
 -------------------------------------------------------------------
      1        1           0.000011928    0.000018384    0.000006857
      2        6          -0.000073322    0.000045499    0.000003367
      3        6          -0.000007426    0.000099320    0.000025985
      4        8           0.000033448   -0.000052435   -0.000009946
      5        1          -0.000030309   -0.000083051   -0.000019676
      6        1           0.000032621   -0.000013501   -0.000006625
      7        1           0.000033061   -0.000014217    0.000000039
 -------------------------------------------------------------------
 Cartesian Forces:  Max     0.000099320 RMS     0.000039842
 FormGI is forming the generalized inverse of G from B-inverse, IUseBI=4.

 GradGradGradGradGradGradGradGradGradGradGradGradGradGradGradGradGradGrad
 Berny optimization.
 Internal  Forces:  Max     0.000107648 RMS     0.000034745
 Search for a local minimum.
 Step number   1 out of a maximum of    2
 All quantities printed in internal units (Hartrees-Bohrs-Radians)
 Second derivative matrix not updated -- analytic derivatives used.
 ITU=  0
     Eigenvalues ---   -0.00145   0.04711   0.05344   0.05472   0.11703
     Eigenvalues ---    0.12219   0.13034   0.15196   0.22020   0.28564
     Eigenvalues ---    0.29559   0.33514   0.33963   0.34513   0.86877
 Eigenvalue     1 is  -1.45D-03 should be greater than     0.000000 Eigenvector:
                          D3        D2        D6        D5        D1
   1                    0.43302   0.43302   0.41230   0.41230   0.38624
                          D4        A8        A7        A5        A6
   1                    0.36552   0.02626  -0.02626  -0.01978   0.01978
 Angle between quadratic step and forces=  25.58 degrees.
 Linear search not attempted -- first point.
 Iteration  1 RMS(Cart)=  0.00036255 RMS(Int)=  0.00000013
 Iteration  2 RMS(Cart)=  0.00000012 RMS(Int)=  0.00000000
 Variable       Old X    -DE/DX   Delta X   Delta X   Delta X     New X
                                 (Linear)    (Quad)   (Total)
    R1        2.09847  -0.00001   0.00000  -0.00004  -0.00004   2.09843
    R2        2.84925   0.00000   0.00000   0.00008   0.00008   2.84932
    R3        2.27346   0.00006   0.00000   0.00006   0.00006   2.27352
    R4        2.05878  -0.00005   0.00000  -0.00015  -0.00015   2.05863
    R5        2.06373   0.00002   0.00000   0.00005   0.00005   2.06378
    R6        2.06373   0.00002   0.00000   0.00005   0.00005   2.06378
    A1        2.02940  -0.00002   0.00000  -0.00025  -0.00025   2.02914
    A2        2.09674   0.00002   0.00000   0.00010   0.00010   2.09683
    A3        2.15705   0.00001   0.00000   0.00016   0.00016   2.15721
    A4        1.95530  -0.00011   0.00000  -0.00078  -0.00078   1.95452
    A5        1.90650   0.00001   0.00000   0.00006   0.00006   1.90656
    A6        1.90650   0.00001   0.00000   0.00007   0.00007   1.90657
    A7        1.91096   0.00005   0.00000   0.00042   0.00042   1.91138
    A8        1.91097   0.00005   0.00000   0.00042   0.00042   1.91139
    A9        1.87171  -0.00001   0.00000  -0.00016  -0.00016   1.87155
    D1        0.00004  -0.00000   0.00000  -0.00002  -0.00002   0.00002
    D2       -2.12041  -0.00000   0.00000  -0.00008  -0.00008  -2.12048
    D3        2.12049   0.00000   0.00000   0.00004   0.00004   2.12053
    D4        3.14157   0.00000   0.00000   0.00004   0.00004  -3.14157
    D5        1.02112  -0.00000   0.00000  -0.00002  -0.00002   1.02111
    D6       -1.02116   0.00000   0.00000   0.00010   0.00010  -1.02106
         Item               Value     Threshold  Converged?
 Maximum Force            0.000108     0.000450     YES
 RMS     Force            0.000035     0.000300     YES
 Maximum Displacement     0.000976     0.001800     YES
 RMS     Displacement     0.000363     0.001200     YES
 Predicted change in Energy=-7.730213D-08
 Optimization completed.
    -- Stationary point found.
                           ----------------------------
                           !   Optimized Parameters   !
                           ! (Angstroms and Degrees)  !
 --------------------------                            --------------------------
 ! Name  Definition              Value          Derivative Info.                !
 --------------------------------------------------------------------------------
 ! R1    R(1,2)                  1.1105         -DE/DX =    0.0                 !
 ! R2    R(2,3)                  1.5078         -DE/DX =    0.0                 !
 ! R3    R(2,4)                  1.2031         -DE/DX =    0.0001              !
 ! R4    R(3,5)                  1.0895         -DE/DX =    0.0                 !
 ! R5    R(3,6)                  1.0921         -DE/DX =    0.0                 !
 ! R6    R(3,7)                  1.0921         -DE/DX =    0.0                 !
 ! A1    A(1,2,3)              116.2759         -DE/DX =    0.0                 !
 ! A2    A(1,2,4)              120.1341         -DE/DX =    0.0                 !
 ! A3    A(3,2,4)              123.59           -DE/DX =    0.0                 !
 ! A4    A(2,3,5)              112.0305         -DE/DX =   -0.0001              !
 ! A5    A(2,3,6)              109.2344         -DE/DX =    0.0                 !
 ! A6    A(2,3,7)              109.2344         -DE/DX =    0.0                 !
 ! A7    A(5,3,6)              109.4902         -DE/DX =    0.0001              !
 ! A8    A(5,3,7)              109.4903         -DE/DX =    0.0001              !
 ! A9    A(6,3,7)              107.2412         -DE/DX =    0.0                 !
 ! D1    D(1,2,3,5)              0.0024         -DE/DX =    0.0                 !
 ! D2    D(1,2,3,6)           -121.4904         -DE/DX =    0.0                 !
 ! D3    D(1,2,3,7)            121.4952         -DE/DX =    0.0                 !
 ! D4    D(4,2,3,5)           -180.0011         -DE/DX =    0.0                 !
 ! D5    D(4,2,3,6)             58.5061         -DE/DX =    0.0                 !
 ! D6    D(4,2,3,7)            -58.5083         -DE/DX =    0.0                 !
 --------------------------------------------------------------------------------
 GradGradGradGradGradGradGradGradGradGradGradGradGradGradGradGradGradGrad


 ----------------------------------------------------------------------

 Electric dipole moment (input orientation):
 (Debye = 10**-18 statcoulomb cm , SI units = C m)
                  (au)            (Debye)         (10**-30 SI)
   Tot        0.106435D+01      0.270531D+01      0.902394D+01
   x         -0.296249D+00     -0.752991D+00     -0.251171D+01
   y          0.994244D+00      0.252712D+01      0.842955D+01
   z          0.237820D+00      0.604479D+00      0.201633D+01

 Dipole polarizability, Alpha (input orientation).
 (esu units = cm**3 , SI units = C**2 m**2 J**-1)
 Alpha(0;0):
               (au)            (10**-24 esu)      (10**-40 SI)
   iso        0.279502D+02      0.414179D+01      0.460837D+01
   aniso      0.102593D+02      0.152027D+01      0.169152D+01
   xx         0.290349D+02      0.430253D+01      0.478721D+01
   yx        -0.850016D+00     -0.125959D+00     -0.140149D+00
   yy         0.325645D+02      0.482556D+01      0.536916D+01
   zx        -0.203276D+00     -0.301224D-01     -0.335157D-01
   zy         0.261665D+01      0.387748D+00      0.431428D+00
   zz         0.222512D+02      0.329729D+01      0.366873D+01

 ----------------------------------------------------------------------

 Dipole orientation:
     1          1.86488007          0.34741125         -0.35288203
     6          3.81249560          0.78924134         -0.99719220
     6          5.74814446          1.22845336          1.04696194
     8          4.28303303          0.89603068         -3.21885673
     1          4.93751547          1.04453356          2.93048122
     1          6.55452807          3.11517517          0.82562107
     1          7.28983673         -0.12549083          0.82563881

 Electric dipole moment (dipole orientation):
 (Debye = 10**-18 statcoulomb cm , SI units = C m)
                  (au)            (Debye)         (10**-30 SI)
   Tot        0.106435D+01      0.270531D+01      0.902394D+01
   x          0.000000D+00      0.000000D+00      0.000000D+00
   y          0.000000D+00      0.000000D+00      0.000000D+00
   z          0.106435D+01      0.270531D+01      0.902394D+01

 Dipole polarizability, Alpha (dipole orientation).
 (esu units = cm**3 , SI units = C**2 m**2 J**-1)
 Alpha(0;0):
               (au)            (10**-24 esu)      (10**-40 SI)
   iso        0.279502D+02      0.414179D+01      0.460837D+01
   aniso      0.102593D+02      0.152027D+01      0.169152D+01
   xx         0.285339D+02      0.422829D+01      0.470461D+01
   yx         0.156742D+01      0.232267D+00      0.258432D+00
   yy         0.219809D+02      0.325724D+01      0.362416D+01
   zx         0.363139D+00      0.538117D-01      0.598736D-01
   zy         0.823776D-01      0.122071D-01      0.135822D-01
   zz         0.333358D+02      0.493985D+01      0.549633D+01

 ----------------------------------------------------------------------
 1\1\GINC-ROBERTS-IMAC-PRO\Freq\RB3LYP\def2TZVP\C2H4O1\RPATON\07-May-20
 18\0\\#N Geom=AllCheck Guess=TCheck SCRF=Check GenChk RB3LYP/def2TZVP 
 Freq\\acetaldehyde = [H]C(C)[D=O\\0,1\H,1.0154075071,0.088006951,0.061
 2208246\C,2.125367177,0.055587255,0.0534959939\C,2.8331166881,1.350389
 2016,0.3631875143\O,2.6978363507,-0.9735065754,-0.1926769345\H,2.13320
 63305,2.162379465,0.5574131429\H,3.4775975262,1.6179705573,-0.47685800
 78\H,3.4776184203,1.2089031454,1.2333774665\\Version=EM64M-G16RevB.01\
 State=1-A\HF=-153.9019987\RMSD=7.572e-09\RMSF=3.984e-05\ZeroPoint=0.05
 49561\Thermal=0.0582192\Dipole=-0.2962493,0.9942437,0.2378204\DipoleDe
 riv=-0.3047385,-0.0046033,-0.0011021,-0.0029145,-0.0149583,-0.0225687,
 -0.0007108,-0.0225666,0.0740029,0.9290419,0.0500529,0.0119781,-0.00316
 05,1.2129297,0.2535633,-0.0007492,0.2535638,0.2134613,-0.1309307,-0.37
 45724,-0.089593,-0.1791689,-0.2157977,-0.0621971,-0.0428491,-0.0621827
 ,0.029365,-0.5700954,0.2134224,0.0510451,0.1378215,-1.0050853,-0.15773
 42,0.0329696,-0.1577503,-0.3833392,-0.0344948,0.1117884,0.0267398,0.04
 46119,-0.0400003,-0.0286376,0.0106721,-0.028637,0.072874,0.0556113,-0.
 0128019,0.0621678,-0.0162813,0.0349709,-0.015517,0.0742746,0.0192263,-
 0.0066996,0.0556061,0.016714,-0.0612357,0.0190918,0.0279409,0.0330913,
 -0.0736072,-0.0016535,0.0003356\Polar=29.0348899,-0.850016,32.5645027,
 -0.2032761,2.616654,22.2512034\Quadrupole=0.8961503,-1.6256626,0.72951
 23,0.5667179,0.135556,-0.5975516\PG=C01 [X(C2H4O1)]\NImag=1\\0.2937832
 5,-0.00401096,0.06612245,-0.00095378,0.01100563,0.02274416,-0.25732389
 ,-0.01666070,-0.00399187,0.66523005,-0.02407883,-0.05889370,0.00093033
 ,-0.19087138,0.80199049,-0.00576413,0.00093104,-0.06256129,-0.04565397
 ,0.14227001,0.24126292,-0.01134487,-0.02216191,-0.00530049,-0.12920006
 ,-0.03966836,-0.00948916,0.54099696,0.00145374,0.00262448,-0.00487659,
 -0.05571990,-0.14496481,-0.01606352,-0.06022120,0.50199557,0.00034680,
 -0.00487781,0.02184783,-0.01332689,-0.01606181,-0.08164868,-0.01440357
 ,-0.00343214,0.51553072,-0.02406027,0.04673294,0.01117892,-0.26491797,
 0.27451665,0.06566676,0.02733985,-0.00278968,-0.00066718,0.25947831,0.
 03125123,-0.00685721,-0.00686499,0.27072472,-0.57947789,-0.12353313,0.
 01232455,-0.05407359,-0.01630070,-0.31585445,0.64659685,0.00747491,-0.
 00686471,0.02019980,0.06476029,-0.12353422,-0.09260631,0.00294845,-0.0
 1630014,0.01017334,-0.07555532,0.14950362,0.05736686,0.00064885,0.0008
 9078,0.00021307,0.01348093,-0.01375818,-0.00329092,-0.16230216,0.13012
 221,0.03112496,-0.00131453,-0.00369774,-0.00088452,0.17186540,-0.00113
 764,0.00136837,0.00035591,0.02643636,-0.01570860,-0.00283283,0.1248209
 2,-0.19409252,-0.03502366,-0.00572726,-0.00766009,-0.00251410,-0.13942
 781,0.21082382,-0.00027210,0.00035598,-0.00003487,0.00632299,-0.002832
 58,-0.00454283,0.02985696,-0.03502368,-0.05604832,-0.00136986,-0.00251
 399,0.00224902,-0.03335092,0.03944969,0.05533463,-0.00085148,-0.001907
 09,-0.00261263,-0.01363427,-0.00587069,0.01097469,-0.13274175,-0.03699
 753,0.12629237,0.00173724,0.00285838,-0.00034369,-0.01118908,-0.006146
 44,0.01472591,0.14443001,-0.00162761,-0.00152989,-0.00300109,-0.016760
 75,-0.00737208,0.02488233,-0.03732983,-0.06207002,0.05191671,0.0017002
 8,0.00147083,-0.00366555,0.01336155,0.00756995,-0.01955089,0.04285108,
 0.06308818,-0.00088015,-0.00011961,-0.00174998,-0.00486382,-0.00240261
 ,0.00594693,0.12271166,0.04871371,-0.19860486,-0.00021001,0.00047878,0
 .00057395,0.00131122,0.00066162,-0.00341452,-0.13391320,-0.05372619,0.
 21720538,-0.00085160,-0.00288307,0.00146677,-0.01363480,-0.00026922,-0
 .01244327,-0.13274797,0.02415236,-0.12936650,0.00173735,0.00239330,0.0
 0159988,-0.01118941,0.00118187,-0.01591299,0.01224933,-0.00219472,0.01
 584431,0.14443709,-0.00184995,-0.00283450,0.00245080,-0.01714835,0.004
 42659,-0.02565390,0.02223582,-0.04941911,0.02377941,0.00142152,0.00000
 110,0.00337510,0.01250918,-0.00230094,0.02011547,0.00521229,-0.0011569
 7,0.00639429,-0.02238052,0.05128382,0.00004846,-0.00043053,-0.00044564
 ,-0.00324672,0.00163088,-0.00585073,-0.12632386,0.02698235,-0.21125004
 ,0.00095668,-0.00076960,0.00204334,0.00487711,-0.00009663,0.00645689,-
 0.01512346,0.00314468,-0.01995690,0.13881180,-0.03046117,0.22900308\\-
 0.00001193,-0.00001838,-0.00000686,0.00007332,-0.00004550,-0.00000337,
 0.00000743,-0.00009932,-0.00002598,-0.00003345,0.00005244,0.00000995,0
 .00003031,0.00008305,0.00001968,-0.00003262,0.00001350,0.00000663,-0.0
 0003306,0.00001422,-0.00000004\\\@


 IT TAKES GREATER CHARACTER TO CARRY OFF GOOD FORTUNE THAN BAD.
                     FRENCH PROVERB.
 Job cpu time:       0 days  0 hours  2 minutes 52.1 seconds.
 Elapsed time:       0 days  0 hours  0 minutes 43.2 seconds.
 File lengths (MBytes):  RWF=     14 Int=      0 D2E=      0 Chk=      2 Scr=      1
 Normal termination of Gaussian 16 at Mon May  7 11:10:07 2018.
