Job Start Time: Mon Jan 19 15:09:00 MST 2026
SLURM Job ID: 774501
SLURM Job Name: claisen_ts
SLURM Job Nodes: node18
SLURM Memory / CPU: 

                                 *****************
                                 * O   R   C   A *
                                 *****************

                                            #,                                       
                                            ###                                      
                                            ####                                     
                                            #####                                    
                                            ######                                   
                                           ########,                                 
                                     ,,################,,,,,                         
                               ,,#################################,,                 
                          ,,##########################################,,             
                       ,#########################################, ''#####,          
                    ,#############################################,,   '####,        
                  ,##################################################,,,,####,       
                ,###########''''           ''''###############################       
              ,#####''   ,,,,##########,,,,          '''####'''          '####       
            ,##' ,,,,###########################,,,                        '##       
           ' ,,###''''                  '''############,,,                           
         ,,##''                                '''############,,,,        ,,,,,,###''
      ,#''                                            '''#######################'''  
     '                                                          ''''####''''         
             ,#######,   #######,   ,#######,      ##                                
            ,#'     '#,  ##    ##  ,#'     '#,    #''#        ,####,   ,####,        
            ##       ##  ##   ,#'  ##            #'  '#       #'       #'  '#        
            ##       ##  #######   ##           ,######,      #####,   #    #        
            '#,     ,#'  ##    ##  '#,     ,#' ,#      #,     #,   #   #,  ,#        
             '#######'   ##     ##  '#######'  #'      '#     '####' # '####'        



                #########################################################
                #                        -***-                          #
                #          Department of theory and spectroscopy        #
                #                                                       #
                #                      Frank Neese                      #
                #                                                       #
                #     Directorship, Architecture, Infrastructure        #
                #                    SHARK, DRIVERS                     #
                #        Core code/Algorithms in most modules           #
                #                                                       #
                #        Max Planck Institute fuer Kohlenforschung      #
                #                Kaiser Wilhelm Platz 1                 #
                #                 D-45470 Muelheim/Ruhr                 #
                #                      Germany                          #
                #                                                       #
                #                  All rights reserved                  #
                #                        -***-                          #
                #########################################################


                         Program Version 6.0.0  -   RELEASE  -


 With contributions from (in alphabetic order):
   Daniel Aravena         : Magnetic Suceptibility
   Michael Atanasov       : Ab Initio Ligand Field Theory (pilot matlab implementation)
   Alexander A. Auer      : GIAO ZORA, VPT2 properties, NMR spectrum
   Ute Becker             : All parallelization in ORCA, NUMFREQ, NUMCALC
   Giovanni Bistoni       : ED, misc. LED, open-shell LED, HFLD
   Martin Brehm           : Molecular dynamics
   Dmytro Bykov           : pre 5.0 version of the SCF Hessian
   Marcos Casanova-Páez   : Triplet and SCS-CIS(D). UHF-(DLPNO)-IP/EA/STEOM-CCSD. UHF-CVS-IP/STEOM-CCSD
   Vijay G. Chilkuri      : MRCI spin determinant printing, contributions to CSF-ICE
   Pauline Colinet        : FMM embedding
   Dipayan Datta          : RHF DLPNO-CCSD density
   Achintya Kumar Dutta   : EOM-CC, STEOM-CC
   Nicolas Foglia         : Exact transition moments, OPA infrastructure, MCD improvements
   Dmitry Ganyushin       : Spin-Orbit,Spin-Spin,Magnetic field MRCI
   Miquel Garcia          : C-PCM and meta-GGA Hessian, CCSD/C-PCM, Gaussian charge scheme
   Tiago L. C. Gouveia    : GS-ROHF, GS-ROCIS
   Yang Guo               : DLPNO-NEVPT2, F12-NEVPT2, CIM, IAO-localization
   Andreas Hansen         : Spin unrestricted coupled pair/coupled cluster methods
   Ingolf Harden          : AUTO-CI MPn and infrastructure 
   Benjamin Helmich-Paris : MC-RPA, TRAH-(SCF,CASSCF), AVAS, COSX integrals, SCF dyn. polar.
   Lee Huntington         : MR-EOM, pCC
   Robert Izsak           : Overlap fitted RIJCOSX, COSX-SCS-MP3, EOM
   Riya Kayal             : Wick's Theorem for AUTO-CI, AUTO-CI UHF-CCSDT
   Emily Kempfer          : AUTO-CI, RHF CISDT and CCSDT
   Christian Kollmar      : KDIIS, OOCD, Brueckner-CCSD(T), CCSD density, CASPT2, CASPT2-K, improved NEVPT2
   Axel Koslowski         : Symmetry handling
   Simone Kossmann        : Meta GGA functionals, TD-DFT gradient, OOMP2, (MP2 Hessian; deprecated post 5.0)
   Lucas Lang             : DCDCAS
   Marvin Lechner         : AUTO-CI (C++ implementation), FIC-MRCC
   Spencer Leger          : CASSCF response
   Dagmar Lenk            : GEPOL surface, SMD, ORCA-2-JSON
   Dimitrios Liakos       : Extrapolation schemes; Compound Job, initial MDCI parallelization
   Dimitrios Manganas     : Further ROCIS development; embedding schemes. LFT, Crystal Embedding
   Dimitrios Pantazis     : SARC Basis sets
   Anastasios Papadopoulos: AUTO-CI, single reference methods and gradients
   Taras Petrenko         : pre 6.0 DFT Hessian and TD-DFT gradient, (ASA, deprecated), ECA, 1-Electron XAS/XES, NRVS
   Peter Pinski           : DLPNO-MP2, DLPNO-MP2 Gradient
   Christoph Reimann      : Effective Core Potentials
   Marius Retegan         : Local ZFS, SOC
   Christoph Riplinger    : Optimizer, TS searches, QM/MM, DLPNO-CCSD(T), (RO)-DLPNO pert. Triples
   Michael Roemelt        : Original ROCIS implementation
   Masaaki Saitow         : Open-shell DLPNO-CCSD energy and density
   Barbara Sandhoefer     : DKH picture change effects
   Kantharuban Sivalingam : CASSCF convergence/infrastructure, NEVPT2 and variants, FIC-MRCI
   Bernardo de Souza      : ESD, SOC TD-DFT
   Georgi Stoychev        : AutoAux, RI-MP2 NMR, DLPNO-MP2 response, X2C
   Van Anh Tran           : RI-MP2 g-tensors
   Willem Van den Heuvel  : Paramagnetic NMR
   Zikuan Wang            : NOTCH, Electric field optimization 
   Frank Wennmohs         : Technical directorship and infrastructure
   Hang Xu                : AUTO-CI-Response properties 


 We gratefully acknowledge several colleagues who have allowed us to
 interface, adapt or use parts of their codes:
   Stefan Grimme, W. Hujo, H. Kruse, P. Pracht,  : VdW corrections, initial TS optimization,
                  C. Bannwarth, S. Ehlert,         DFT functionals, gCP, sTDA/sTD-DF
                  L. Wittmann, M. Mueller
   Ed Valeev, F. Pavosevic, A. Kumar             : LibInt (2-el integral package), F12 methods
   Garnet Chan, S. Sharma, J. Yang, R. Olivares  : DMRG
   Ulf Ekstrom                                   : XCFun DFT Library
   Mihaly Kallay                                 : mrcc  (arbitrary order and MRCC methods)
   Frank Weinhold                                : gennbo (NPA and NBO analysis)
   Simon Mueller                                 : openCOSMO-RS
   Christopher J. Cramer and Donald G. Truhlar   : smd solvation model
   Lars Goerigk                                  : TD-DFT with DH, B97 family of functionals
   V. Asgeirsson, H. Jonsson                     : NEB implementation
   FAccTs GmbH                                   : IRC, NEB, NEB-TS, DLPNO-Multilevel, CI-OPT
                                                   MM, QMMM, 2- and 3-layer-ONIOM, Crystal-QMMM,
                                                   LR-CPCM, SF, NACMEs, symmetry and pop. for TD-DFT,
                                                   nearIR, NL-DFT gradient (VV10), updates on ESD,
                                                   ML-optimized integration grids, MBIS, APM,
                                                   GOAT, DOCKER, SOLVATOR, interface openCOSMO-RS
   S Lehtola, MJT Oliveira, MAL Marques          : LibXC Library
   Liviu Ungur et al                             : ANISO software


 Your calculation uses the libint2 library for the computation of 2-el integrals
 For citations please refer to: http://libint.valeyev.net

 Your ORCA version has been built with support for libXC version: 6.2.2
 For citations please refer to: https://libxc.gitlab.io

 This ORCA versions uses:
   CBLAS   interface :  Fast vector & matrix operations
   LAPACKE interface :  Fast linear algebra routines
   SCALAPACK package :  Parallel linear algebra routines
   Shared memory     :  Shared parallel matrices
   BLAS/LAPACK       :  OpenBLAS 0.3.27  USE64BITINT DYNAMIC_ARCH NO_AFFINITY Zen SINGLE_THREADED
        Core in use  :  Zen
   Copyright (c) 2011-2014, The OpenBLAS Project


Your calculation utilizes the atom-pairwise dispersion correction
with the zero-damping scheme (D30)


XCFun DFT library Copyright 2009-2010 Ulf Ekstrom and contributors.
See http://admol.org/xcfun for more information.
This is free software; see the source code for copying conditions.
There is ABSOLUTELY NO WARRANTY; not even for MERCHANTABILITY or FITNESS FOR A PARTICULAR PURPOSE.
For details see the documentation.
Scientific users of this library should cite U. Ekstrom, L. Visscher, R. Bast, A. J. Thorvaldsen and K. Ruud;
J.Chem.Theor.Comp. 2010, DOI: 10.1021/ct100117s
XCFun Version 0.99 

Warning: RI is on but no J-basis has been assigned. Assigning Def2/J (nothing to worry about!)
================================================================================

----- Orbital basis set information -----
Your calculation utilizes the basis: def2-SVP
   F. Weigend and R. Ahlrichs, Phys. Chem. Chem. Phys. 7, 3297 (2005).

----- AuxJ basis set information -----
Your calculation utilizes the auxiliary basis: def2/J
   F. Weigend, Phys. Chem. Chem. Phys. 8, 1057 (2006).

================================================================================
                                        WARNINGS
                       Please study these warnings very carefully!
================================================================================


WARNING: Geometry Optimization
  ===> : Switching off AutoStart
         For restart on a previous wavefunction, please use MOREAD

================================================================================
                                       INPUT FILE
================================================================================
NAME = /tmp/774501/claisen_ts.inp
|  1> ! wB97X-D3 def2-SVP OptTS Freq
|  2> %pal nprocs 16 end
|  3> 
|  4> *xyz 0 1
|  5>  C                 -1.46630900    0.78416700   -0.28998400
|  6>  C                 -1.29105700   -0.47205600    0.26183900
|  7>  O                 -0.51102600   -1.35845600   -0.25222100
|  8>  C                  1.28557000   -0.90028400    0.18203400
|  9>  C                  1.37470200    0.41270400   -0.30179600
| 10>  C                  0.66867800    1.42529500    0.32223600
| 11>  H                 -2.14589700    1.49239700    0.17879400
| 12>  H                 -1.22540000    0.95368900   -1.33299400
| 13>  H                 -1.67666300   -0.64615200    1.28181200
| 14>  H                  1.76639500   -1.71190500   -0.35332000
| 15>  H                  1.17354000   -1.06949500    1.24881600
| 16>  H                  1.69249600    0.55703400   -1.33267500
| 17>  H                  0.62902600    2.42494500   -0.10169800
| 18>  H                  0.44520400    1.36817500    1.38305600
| 19> *
| 20> 
| 21>                          ****END OF INPUT****
================================================================================

                       *****************************
                       * Geometry Optimization Run *
                       *****************************

Geometry optimization settings:
Update method            Update   .... Bofill
Choice of coordinates    CoordSys .... (2022) Redundant Internals
Initial Hessian          InHess   .... Almloef's Model
Max. no of cycles        MaxIter  .... 50

Convergence Tolerances:
Energy Change            TolE     ....  5.0000e-06 Eh
Max. Gradient            TolMAXG  ....  3.0000e-04 Eh/bohr
RMS Gradient             TolRMSG  ....  1.0000e-04 Eh/bohr
Max. Displacement        TolMAXD  ....  4.0000e-03 bohr
RMS Displacement         TolRMSD  ....  2.0000e-03 bohr
Strict Convergence                .... False

------------------------------------------------------------------------------
                        ORCA OPTIMIZATION COORDINATE SETUP
------------------------------------------------------------------------------

The optimization will be done in redundant internal coordinates (2022)
Making redundant internal coordinates   ...  (2022 redundants) done
Following TS mode number                ...     0
Evaluating the initial hessian          ...  (Almloef) done
Evaluating the coordinates              ...  done
Calculating the B-matrix                .... done
Calculating the G-matrix                .... done
Diagonalizing the G-matrix              .... done
Small eigenvalue found = 1.222e-02
Small eigenvalue found = 2.894e-02
The first mode is                       ....   14
The number of degrees of freedom        ....   36

    -----------------------------------------------------------------
                    Redundant Internal Coordinates


    -----------------------------------------------------------------
         Definition                    Initial Value    Approx d2E/dq
    -----------------------------------------------------------------
      1. B(C   1,C   0)                  1.3832         0.640536   
      2. B(O   2,C   1)                  1.2878         0.814592   
      3. B(C   3,O   2)                  1.9043         0.084603   
      4. B(C   4,C   3)                  1.4021         0.597562   
      5. B(C   5,C   4)                  1.3832         0.640614   
      6. B(H   6,C   0)                  1.0877         0.363100   
      7. B(H   7,C   0)                  1.0838         0.368382   
      8. B(H   8,C   1)                  1.1042         0.341746   
      9. B(H   9,C   3)                  1.0847         0.367210   
     10. B(H  10,C   3)                  1.0859         0.365547   
     11. B(H  11,C   4)                  1.0884         0.362271   
     12. B(H  12,C   5)                  1.0866         0.364692   
     13. B(H  13,C   5)                  1.0856         0.365959   
     14. A(H   6,C   0,H   7)          116.8575         0.292262   
     15. A(C   1,C   0,H   6)          119.9039         0.355362   
     16. A(C   1,C   0,H   7)          119.8552         0.356234   
     17. A(C   0,C   1,H   8)          117.8680         0.351733   
     18. A(C   0,C   1,O   2)          122.8611         0.455732   
     19. A(O   2,C   1,H   8)          118.1456         0.364141   
     20. A(C   1,O   2,C   3)          108.3501         0.319024   
     21. A(O   2,C   3,C   4)          101.9226         0.305226   
     22. A(C   4,C   3,H  10)          119.4368         0.351607   
     23. A(O   2,C   3,H  10)           95.1176         0.256324   
     24. A(C   4,C   3,H   9)          120.1454         0.351877   
     25. A(O   2,C   3,H   9)           97.2175         0.256496   
     26. A(H   9,C   3,H  10)          114.4564         0.292425   
     27. A(C   3,C   4,H  11)          118.0073         0.351073   
     28. A(C   5,C   4,H  11)          118.6387         0.355232   
     29. A(C   3,C   4,C   5)          119.8280         0.433742   
     30. A(H  12,C   5,H  13)          114.9705         0.292160   
     31. A(C   4,C   5,H  13)          120.4912         0.355843   
     32. A(C   4,C   5,H  12)          121.0724         0.355634   
     33. D(O   2,C   1,C   0,H   7)     20.7528         0.028509   
     34. D(H   8,C   1,C   0,H   7)   -171.6118         0.028509   
     35. D(O   2,C   1,C   0,H   6)    179.3467         0.028509   
     36. D(H   8,C   1,C   0,H   6)    -13.0179         0.028509   
     37. D(C   3,O   2,C   1,H   8)    -90.5645         0.051365   
     38. D(C   3,O   2,C   1,C   0)     77.0385         0.051365   
     39. D(C   4,C   3,O   2,C   1)    -54.9493         0.001918   
     40. D(H  10,C   3,O   2,C   1)     66.5992         0.001918   
     41. D(H   9,C   3,O   2,C   1)   -177.9130         0.001918   
     42. D(H  11,C   4,C   3,H   9)     16.1031         0.026728   
     43. D(H  11,C   4,C   3,O   2)    -89.6272         0.026728   
     44. D(C   5,C   4,C   3,H  10)    -34.0154         0.026728   
     45. D(C   5,C   4,C   3,H   9)    174.6492         0.026728   
     46. D(C   5,C   4,C   3,O   2)     68.9189         0.026728   
     47. D(H  12,C   5,C   4,C   3)   -172.7616         0.028517   
     48. D(H  13,C   5,C   4,H  11)   -172.2901         0.028517   
     49. D(H  13,C   5,C   4,C   3)     29.2979         0.028517   
     50. D(H  12,C   5,C   4,H  11)    -14.3496         0.028517   
    -----------------------------------------------------------------

Number of atoms                         .... 14
Number of degrees of freedom            .... 50


         *************************************************************
         *                GEOMETRY OPTIMIZATION CYCLE   1            *
         *************************************************************
---------------------------------
CARTESIAN COORDINATES (ANGSTROEM)
---------------------------------
  C     -1.466309    0.784167   -0.289984
  C     -1.291057   -0.472056    0.261839
  O     -0.511026   -1.358456   -0.252221
  C      1.285570   -0.900284    0.182034
  C      1.374702    0.412704   -0.301796
  C      0.668678    1.425295    0.322236
  H     -2.145897    1.492397    0.178794
  H     -1.225400    0.953689   -1.332994
  H     -1.676663   -0.646152    1.281812
  H      1.766395   -1.711905   -0.353320
  H      1.173540   -1.069495    1.248816
  H      1.692496    0.557034   -1.332675
  H      0.629026    2.424945   -0.101698
  H      0.445204    1.368175    1.383056

----------------------------
CARTESIAN COORDINATES (A.U.)
----------------------------
  NO LB      ZA    FRAG     MASS         X           Y           Z
   0 C     6.0000    0    12.011   -2.770922    1.481861   -0.547990
   1 C     6.0000    0    12.011   -2.439744   -0.892057    0.494804
   2 O     8.0000    0    15.999   -0.965699   -2.567110   -0.476629
   3 C     6.0000    0    12.011    2.429375   -1.701290    0.343994
   4 C     6.0000    0    12.011    2.597810    0.779898   -0.570312
   5 C     6.0000    0    12.011    1.263618    2.693417    0.608938
   6 H     1.0000    0     1.008   -4.055158    2.820222    0.337872
   7 H     1.0000    0     1.008   -2.315670    1.802211   -2.518994
   8 H     1.0000    0     1.008   -3.168434   -1.221050    2.422274
   9 H     1.0000    0     1.008    3.338003   -3.235032   -0.667678
  10 H     1.0000    0     1.008    2.217669   -2.021053    2.359920
  11 H     1.0000    0     1.008    3.198354    1.052642   -2.518391
  12 H     1.0000    0     1.008    1.188687    4.582482   -0.192181
  13 H     1.0000    0     1.008    0.841314    2.585476    2.613597

--------------------------------
INTERNAL COORDINATES (ANGSTROEM)
--------------------------------
 C      0   0   0     0.000000000000     0.00000000     0.00000000
 C      1   0   0     1.383227426189     0.00000000     0.00000000
 O      2   1   0     1.287793075211   122.86114288     0.00000000
 C      3   2   1     1.904273135300   108.35013554    77.03845335
 C      4   3   2     1.402131759311   101.92256988   305.05074026
 C      5   4   3     1.383194259271   119.82804172    68.91892798
 H      1   2   3     1.087741879275   119.90393718   179.34672554
 H      1   2   3     1.083810276231   119.85520129    20.75282229
 H      2   1   3     1.104240157385   117.86802625   167.63541248
 H      4   3   2     1.084677479061    97.21754581   182.08700132
 H      4   3   2     1.085912942618    95.11760175    66.59915903
 H      5   4   3     1.088363766384   118.00731213   270.37279459
 H      6   5   4     1.086550707496   121.07240035   187.23844877
 H      6   5   4     1.085606924939   120.49123912    29.29791554

---------------------------
INTERNAL COORDINATES (A.U.)
---------------------------
 C      0   0   0     0.000000000000     0.00000000     0.00000000
 C      1   0   0     2.613921016426     0.00000000     0.00000000
 O      2   1   0     2.433576229309   122.86114288     0.00000000
 C      3   2   1     3.598554709900   108.35013554    77.03845335
 C      4   3   2     2.649645028771   101.92256988   305.05074026
 C      5   4   3     2.613858340035   119.82804172    68.91892798
 H      1   2   3     2.055534256226   119.90393718   179.34672554
 H      1   2   3     2.048104603207   119.85520129    20.75282229
 H      2   1   3     2.086711483535   117.86802625   167.63541248
 H      4   3   2     2.049743379057    97.21754581   182.08700132
 H      4   3   2     2.052078066828    95.11760175    66.59915903
 H      5   4   3     2.056709452548   118.00731213   270.37279459
 H      6   5   4     2.053283267786   121.07240035   187.23844877
 H      6   5   4     2.051499777224   120.49123912    29.29791554

---------------------
BASIS SET INFORMATION
---------------------
There are 3 groups of distinct atoms

 Group   1 Type C   : 7s4p1d contracted to 3s2p1d pattern {511/31/1}
 Group   2 Type O   : 7s4p1d contracted to 3s2p1d pattern {511/31/1}
 Group   3 Type H   : 4s1p contracted to 2s1p pattern {31/1}

Atom   0C    basis set group =>   1
Atom   1C    basis set group =>   1
Atom   2O    basis set group =>   2
Atom   3C    basis set group =>   1
Atom   4C    basis set group =>   1
Atom   5C    basis set group =>   1
Atom   6H    basis set group =>   3
Atom   7H    basis set group =>   3
Atom   8H    basis set group =>   3
Atom   9H    basis set group =>   3
Atom  10H    basis set group =>   3
Atom  11H    basis set group =>   3
Atom  12H    basis set group =>   3
Atom  13H    basis set group =>   3
---------------------------------
AUXILIARY/J BASIS SET INFORMATION
---------------------------------
There are 3 groups of distinct atoms

 Group   1 Type C   : 12s5p4d2f1g contracted to 6s4p3d1f1g pattern {711111/2111/211/2/1}
 Group   2 Type O   : 12s5p4d2f1g contracted to 6s4p3d1f1g pattern {711111/2111/211/2/1}
 Group   3 Type H   : 5s2p1d contracted to 3s1p1d pattern {311/2/1}

Atom   0C    basis set group =>   1
Atom   1C    basis set group =>   1
Atom   2O    basis set group =>   2
Atom   3C    basis set group =>   1
Atom   4C    basis set group =>   1
Atom   5C    basis set group =>   1
Atom   6H    basis set group =>   3
Atom   7H    basis set group =>   3
Atom   8H    basis set group =>   3
Atom   9H    basis set group =>   3
Atom  10H    basis set group =>   3
Atom  11H    basis set group =>   3
Atom  12H    basis set group =>   3
Atom  13H    basis set group =>   3


           ************************************************************
           *        Program running with 16 parallel MPI-processes    *
           *              working on a common directory               *
           ************************************************************
------------------------------------------------------------------------------
                             ORCA STARTUP CALCULATIONS
                           -- RI-GTO INTEGRALS CHOSEN --
------------------------------------------------------------------------------
------------------------------------------------------------------------------
                   ___                                                        
                  /   \      - P O W E R E D   B Y -                         
                 /     \                                                     
                 |  |  |   _    _      __       _____    __    __             
                 |  |  |  | |  | |    /  \     |  _  \  |  |  /  |          
                  \  \/   | |  | |   /    \    | | | |  |  | /  /          
                 / \  \   | |__| |  /  /\  \   | |_| |  |  |/  /          
                |  |  |   |  __  | /  /__\  \  |    /   |      \           
                |  |  |   | |  | | |   __   |  |    \   |  |\   \          
                \     /   | |  | | |  |  |  |  | |\  \  |  | \   \       
                 \___/    |_|  |_| |__|  |__|  |_| \__\ |__|  \__/        
                                                                              
                      - O R C A' S   B I G   F R I E N D -                    
                                      &                                       
                       - I N T E G R A L  F E E D E R -                       
                                                                              
 v1 FN, 2020, v2 2021, v3 2022-2024                                           
------------------------------------------------------------------------------


----------------------
SHARK INTEGRAL PACKAGE
----------------------

Number of atoms                             ...     14
Number of basis functions                   ...    124
Number of shells                            ...     60
Maximum angular momentum                    ...      2
Integral batch strategy                     ... SHARK/LIBINT Hybrid
RI-J (if used) integral strategy            ... SPLIT-RIJ (Revised 2003 algorithm where possible)
Printlevel                                  ...      1
Contraction scheme used                     ... SEGMENTED contraction
Prescreening option                         ... SCHWARTZ
   Thresh                                   ... 2.500e-11
   Tcut                                     ... 2.500e-12
   Tpresel                                  ... 2.500e-12 
Coulomb Range Separation                    ... NOT USED
Exchange Range Separation                   ... Long Range
   Mu parameter                             ... 2.500e-01
   Scaling (regular/separated)              ... 1.957e-01 8.043e-01
Multipole approximations                    ... NOT USED
Finite Nucleus Model                        ... NOT USED
CABS basis                                  ... NOT available
Auxiliary Coulomb fitting basis             ... AVAILABLE
   # of basis functions in Aux-J            ...    382
   # of shells in Aux-J                     ...    130
   Maximum angular momentum in Aux-J        ...      4
Auxiliary J/K fitting basis                 ... NOT available
Auxiliary Correlation fitting basis         ... NOT available
Auxiliary 'external' fitting basis          ... NOT available

Checking pre-screening integrals            ... done (  0.0 sec) Dimension = 60
Check shell pair data                       ... done (  0.0 sec)
Shell pair information
Shell pair cut-off parameter TPreSel        ...   2.5e-12
Total number of shell pairs                 ...      1830
Shell pairs after pre-screening             ...      1806
Total number of primitive shell pairs       ...      6430
Primitive shell pairs kept                  ...      4980
          la=0 lb=0:    584 shell pairs
          la=1 lb=0:    669 shell pairs
          la=1 lb=1:    209 shell pairs
          la=2 lb=0:    203 shell pairs
          la=2 lb=1:    120 shell pairs
          la=2 lb=2:     21 shell pairs

Calculating one electron integrals          ... done (  0.0 sec)
Calculating RI/J V-Matrix + Cholesky decomp.... done (  0.0 sec)
Calculating Nuclear repulsion               ... done (  0.0 sec) ENN=    229.715198749943 Eh

Diagonalization of the overlap matrix:
Smallest eigenvalue                        ... 1.930e-03
Time for diagonalization                   ...    0.049 sec
Threshold for overlap eigenvalues          ... 1.000e-07
Number of eigenvalues below threshold      ... 0
Time for construction of square roots      ...    0.001 sec
Total time needed                          ...    0.059 sec

-------------------
DFT GRID GENERATION
-------------------

General Integration Accuracy     IntAcc      ... 4.388
Radial Grid Type                 RadialGrid  ... OptM3 with GC (2021)
Angular Grid (max. ang.)         AngularGrid ... 4 (Lebedev-302)
Angular grid pruning method      GridPruning ... 4 (adaptive)
Weight generation scheme         WeightScheme... mBecke (2022)
Basis function cutoff            BFCut       ... 1.0000e-11
Integration weight cutoff        WCut        ... 1.0000e-14
Partially contracted basis set               ... off
Rotationally invariant grid construction     ... off
Angular grids for H and He will be reduced by one unit

Total number of grid points                  ...    62020
Total number of batches                      ...      976
Average number of points per batch           ...       63
Average number of grid points per atom       ...     4430

--------------------
COSX GRID GENERATION
--------------------

GRIDX 1
-------
General Integration Accuracy     IntAcc      ... 3.816
Radial Grid Type                 RadialGrid  ... OptM3 with GC (2021)
Angular Grid (max. ang.)         AngularGrid ... 1 (Lebedev-50)
Angular grid pruning method      GridPruning ... 4 (adaptive)
Weight generation scheme         WeightScheme... mBecke (2022)
Basis function cutoff            BFCut       ... 1.0000e-11
Integration weight cutoff        WCut        ... 1.0000e-14
Partially contracted basis set               ... on
Rotationally invariant grid construction     ... off
Angular grids for H and He will be reduced by one unit

Total number of grid points                  ...     7963
Total number of batches                      ...       72
Average number of points per batch           ...      110
Average number of grid points per atom       ...      569
UseSFitting                                  ... on

GRIDX 2
-------
General Integration Accuracy     IntAcc      ... 4.020
Radial Grid Type                 RadialGrid  ... OptM3 with GC (2021)
Angular Grid (max. ang.)         AngularGrid ... 2 (Lebedev-110)
Angular grid pruning method      GridPruning ... 4 (adaptive)
Weight generation scheme         WeightScheme... mBecke (2022)
Basis function cutoff            BFCut       ... 1.0000e-11
Integration weight cutoff        WCut        ... 1.0000e-14
Partially contracted basis set               ... on
Rotationally invariant grid construction     ... off
Angular grids for H and He will be reduced by one unit

Total number of grid points                  ...    16980
Total number of batches                      ...      139
Average number of points per batch           ...      122
Average number of grid points per atom       ...     1213
UseSFitting                                  ... on

GRIDX 3
-------
General Integration Accuracy     IntAcc      ... 4.338
Radial Grid Type                 RadialGrid  ... OptM3 with GC (2021)
Angular Grid (max. ang.)         AngularGrid ... 3 (Lebedev-194)
Angular grid pruning method      GridPruning ... 4 (adaptive)
Weight generation scheme         WeightScheme... mBecke (2022)
Basis function cutoff            BFCut       ... 1.0000e-11
Integration weight cutoff        WCut        ... 1.0000e-14
Partially contracted basis set               ... on
Rotationally invariant grid construction     ... off
Angular grids for H and He will be reduced by one unit

Total number of grid points                  ...    37167
Total number of batches                      ...      298
Average number of points per batch           ...      124
Average number of grid points per atom       ...     2655
UseSFitting                                  ... on
Initializing property integral containers    ... done (  0.0 sec)

SHARK setup successfully completed in   0.7 seconds

Maximum memory used throughout the entire STARTUP-calculation: 16.7 MB


           ************************************************************
           *        Program running with 16 parallel MPI-processes    *
           *              working on a common directory               *
           ************************************************************
-------------------------------------------------------------------------------
                                 ORCA GUESS
                   Start orbitals & Density for SCF / CASSCF
-------------------------------------------------------------------------------

------------
SCF SETTINGS
------------
Hamiltonian:
 Density Functional     Method          .... DFT(GTOs)
 Exchange Functional    Exchange        .... WB97X-D3
 Correlation Functional Correlation     .... WB97X-D3
 Gradients option       PostSCFGGA      .... off
 Hybrid DFT is turned on
   Fraction HF Exchange ScalHFX         ....  0.195728
   Scaling of DF-GGA-X  ScalDFX         ....  0.000000
   Scaling of DF-GGA-C  ScalDFC         ....  1.000000
   Scaling of DF-LDA-C  ScalLDAC        ....  1.000000
   Perturbative correction              ....  0.000000
 Long-range corrected/Screened/Range-Separated Hybrid DFT is turned on
   Amount of maximum screened exact exchange              ....  0.804272
   Range separation parameter mu (erf(mu*r12)/r12)        ....  0.250000
 RI-approximation to the Coulomb term is turned on
   Number of AuxJ basis functions       .... 382
   RIJ-COSX (HFX calculated with COS-X)).... on


General Settings:
 Integral files         IntName         .... /tmp/774501/claisen_ts
 Hartree-Fock type      HFTyp           .... RHF
 Total Charge           Charge          ....    0
 Multiplicity           Mult            ....    1
 Number of Electrons    NEL             ....   46
 Basis Dimension        Dim             ....  124
 Nuclear Repulsion      ENuc            ....    229.7151987499 Eh

Convergence Acceleration:
 AO-DIIS                CNVDIIS         .... on
   Start iteration      DIISMaxIt       ....    12
   Startup error        DIISStart       ....  0.200000
   # of expansion vecs  DIISMaxEq       ....     5
   Bias factor          DIISBfac        ....   1.050
   Max. coefficient     DIISMaxC        ....  10.000
 MO-DIIS                CNVKDIIS        .... off
 Trust-Rad. Augm. Hess. CNVTRAH         .... auto
   Auto Start mean grad. ratio tolernc. ....  1.125000
   Auto Start start iteration           ....    50
   Auto Start num. interpolation iter.  ....    10
   Max. Number of Micro iterations      ....    24
   Max. Number of Macro iterations      .... Maxiter - #DIIS iter
   Number of Davidson start vectors     ....     2
   Converg. threshold    (grad. norm)   ....   1.000e-05
   Grad. Scal. Fac. for Micro threshold ....   0.100
   Minimum threshold for Micro iter.    ....   1.000e-02
   NR start threshold (gradient norm)   ....   1.000e-04
   Initial trust radius                 ....   0.400
   Minimum AH scaling param. (alpha)    ....   1.000
   Maximum AH scaling param. (alpha)    .... 1000.000
   Quad. conv. algorithm                .... NR
   White noise on init. David. guess    .... on
   Maximum white noise                  ....   0.010
   Pseudo random numbers                .... off
   Inactive MOs                         .... canonical
   Orbital update algorithm             .... Taylor
   Preconditioner                       .... Diag
   Full preconditioner red. dimension   ....   250
 SOSCF                  CNVSOSCF        .... on
   Start iteration      SOSCFMaxIt      ....   150
   Startup grad/error   SOSCFStart      ....  0.003300
   Hessian update       SOSCFHessUp     .... L-BFGS
 Level Shifting         CNVShift        .... on
   Level shift para.    LevelShift      ....    0.2500
   Turn off err/grad.   ShiftErr        ....    0.0010
 Zerner damping         CNVZerner       .... off
 Static damping         CNVDamp         .... on
   Fraction old density DampFac         ....    0.7000
   Max. Damping (<1)    DampMax         ....    0.9800
   Min. Damping (>=0)   DampMin         ....    0.0000
   Turn off err/grad.   DampErr         ....    0.1000

SCF Procedure:
 Maximum # iterations   MaxIter         ....   125
 SCF integral mode      SCFMode         .... Direct
   Integral package                     .... SHARK and LIBINT hybrid scheme
 Reset frequency        DirectResetFreq ....    20
 Integral Threshold     Thresh          ....  2.500e-11 Eh
 Primitive CutOff       TCut            ....  2.500e-12 Eh

Convergence Tolerance:
 Convergence Check Mode ConvCheckMode   .... Total+1el-Energy
 Convergence forced     ConvForced      .... 0
 Energy Change          TolE            ....  1.000e-08 Eh
 1-El. energy change                    ....  1.000e-05 Eh
 Orbital Gradient       TolG            ....  1.000e-05
 Orbital Rotation angle TolX            ....  1.000e-05
 DIIS Error             TolErr          ....  5.000e-07

------------------------------
INITIAL GUESS: MODEL POTENTIAL
------------------------------
Loading Hartree-Fock densities                     ... done
Calculating cut-offs                               ... done
Initializing the effective Hamiltonian             ... done
Setting up the integral package (SHARK)            ... done
Starting the Coulomb interaction                   ... done (   0.0 sec)
Making the grid                                    ... done (   0.0 sec)
Mapping shells                                     ... done
Starting the XC term evaluation                    ... done (   0.0 sec)
  promolecular density results
     # of electrons  =     45.997317426
     EX              =    -35.981211294
     EC              =     -1.488908355
     EX+EC           =    -37.470119649
Transforming the Hamiltonian                       ... done (   0.0 sec)
Diagonalizing the Hamiltonian                      ... done (   0.0 sec)
Back transforming the eigenvectors                 ... done (   0.0 sec)
Now organizing SCF variables                       ... done
                      ------------------
                      INITIAL GUESS DONE (   0.1 sec)
                      ------------------
             **** ENERGY FILE WAS UPDATED (/tmp/774501/claisen_ts.en.tmp) ****
Finished Guess after   0.3 sec
Maximum memory used throughout the entire GUESS-calculation: 9.3 MB


           ************************************************************
           *        Program running with 16 parallel MPI-processes    *
           *              working on a common directory               *
           ************************************************************

-------------------------------------------------------------------------------------------
                                      ORCA LEAN-SCF
                              memory conserving SCF solver
-------------------------------------------------------------------------------------------

----------------------------------------D-I-I-S--------------------------------------------
Iteration    Energy (Eh)           Delta-E    RMSDP     MaxDP     DIISErr   Damp  Time(sec)
-------------------------------------------------------------------------------------------
               ***  Starting incremental Fock matrix formation  ***
    1    -270.0439926803634876     0.00e+00  2.83e-03  5.49e-02  1.77e-01  0.700   0.5
    2    -270.0950072287513422    -5.10e-02  2.06e-03  3.80e-02  8.64e-02  0.700   0.2
                               ***Turning on AO-DIIS***
    3    -270.1214285056494191    -2.64e-02  9.58e-04  1.54e-02  4.27e-02  0.700   0.2
    4    -270.1373079261096564    -1.59e-02  2.00e-03  2.72e-02  2.67e-02  0.000   0.2
    5    -270.1716047051089049    -3.43e-02  1.98e-04  3.98e-03  3.92e-03  0.000   0.9
                              *** Initializing SOSCF ***
---------------------------------------S-O-S-C-F--------------------------------------
Iteration    Energy (Eh)           Delta-E    RMSDP     MaxDP     MaxGrad    Time(sec)
--------------------------------------------------------------------------------------
    6    -270.1716725535642354    -6.78e-05  9.41e-05  1.76e-03  2.71e-03     0.2
               *** Restarting incremental Fock matrix formation ***
    7    -270.1716913731747809    -1.88e-05  6.26e-05  9.95e-04  3.38e-04     0.5
    8    -270.1716950171368126    -3.64e-06  7.06e-05  1.17e-03  1.93e-04     0.2
    9    -270.1716958541251756    -8.37e-07  2.78e-05  5.77e-04  1.13e-04     0.2
   10    -270.1716963766622257    -5.23e-07  5.48e-06  9.06e-05  2.27e-05     0.2
   11    -270.1716963944523968    -1.78e-08  2.81e-06  4.09e-05  1.33e-05     0.2
   12    -270.1716963998110828    -5.36e-09  7.54e-07  9.91e-06  3.16e-06     0.2
                 **** Energy Check signals convergence ****

               *****************************************************
               *                     SUCCESS                       *
               *           SCF CONVERGED AFTER  12 CYCLES          *
               *****************************************************

Recomputing exchange energy using gridx3       ... done (    0.431 sec)
Old exchange energy                            :    -12.108729761 Eh
New exchange energy                            :    -12.108736604 Eh
Exchange energy change after final integration :     -0.000006843 Eh
Total energy after final integration           :   -270.171703243 Eh
             **** ENERGY FILE WAS UPDATED (/tmp/774501/claisen_ts.en.tmp) ****

----------------
TOTAL SCF ENERGY
----------------

Total Energy       :       -270.17170324292044 Eh           -7351.74580 eV

Components:
Nuclear Repulsion  :        229.71519874994272 Eh            6250.86835 eV
Electronic Energy  :       -499.88689514975380 Eh          -13602.61396 eV
One Electron Energy:       -820.14509054646624 Eh          -22317.28250 eV
Two Electron Energy:        320.25819539671244 Eh            8714.66854 eV

Virial components:
Potential Energy   :       -537.40825459724488 Eh          -14623.62206 eV
Kinetic Energy     :        267.23655135432449 Eh            7271.87626 eV
Virial Ratio       :          2.01098334742654

DFT components:
N(Alpha)           :       23.000024379077 electrons
N(Beta)            :       23.000024379077 electrons
N(Total)           :       46.000048758153 electrons
E(XC)              :      -26.346692475200 Eh       

---------------
SCF CONVERGENCE
---------------

  Last Energy change         ...    5.3587e-09  Tolerance :   1.0000e-08
  Last MAX-Density change    ...    9.9053e-06  Tolerance :   1.0000e-07
  Last RMS-Density change    ...    7.5433e-07  Tolerance :   5.0000e-09
  Last DIIS Error            ...    2.7068e-03  Tolerance :   5.0000e-07
  Last Orbital Gradient      ...    3.1611e-06  Tolerance :   1.0000e-05
  Last Orbital Rotation      ...    1.2669e-05  Tolerance :   1.0000e-05


----------------
ORBITAL ENERGIES
----------------

  NO   OCC          E(Eh)            E(eV) 
   0   2.0000     -19.228091      -523.2230 
   1   2.0000     -10.336479      -281.2699 
   2   2.0000     -10.336259      -281.2639 
   3   2.0000     -10.324700      -280.9494 
   4   2.0000     -10.293091      -280.0892 
   5   2.0000     -10.290053      -280.0066 
   6   2.0000      -1.111416       -30.2432 
   7   2.0000      -0.913760       -24.8647 
   8   2.0000      -0.844734       -22.9864 
   9   2.0000      -0.784170       -21.3383 
  10   2.0000      -0.674923       -18.3656 
  11   2.0000      -0.659617       -17.9491 
  12   2.0000      -0.593597       -16.1526 
  13   2.0000      -0.564831       -15.3698 
  14   2.0000      -0.547187       -14.8897 
  15   2.0000      -0.538102       -14.6425 
  16   2.0000      -0.502864       -13.6836 
  17   2.0000      -0.484772       -13.1913 
  18   2.0000      -0.469346       -12.7716 
  19   2.0000      -0.463877       -12.6227 
  20   2.0000      -0.367112        -9.9896 
  21   2.0000      -0.351668        -9.5694 
  22   2.0000      -0.313504        -8.5309 
  23   0.0000       0.039615         1.0780 
  24   0.0000       0.080168         2.1815 
  25   0.0000       0.155753         4.2383 
  26   0.0000       0.162905         4.4329 
  27   0.0000       0.172816         4.7026 
  28   0.0000       0.187487         5.1018 
  29   0.0000       0.203580         5.5397 
  30   0.0000       0.222943         6.0666 
  31   0.0000       0.231550         6.3008 
  32   0.0000       0.238965         6.5026 
  33   0.0000       0.262241         7.1360 
*Only the first 10 virtual orbitals were printed.

                    ********************************
                    * MULLIKEN POPULATION ANALYSIS *
                    ********************************

-----------------------
MULLIKEN ATOMIC CHARGES
-----------------------
   0 C :   -0.072933
   1 C :    0.099095
   2 O :   -0.355972
   3 C :    0.132361
   4 C :   -0.136704
   5 C :   -0.041853
   6 H :    0.046023
   7 H :    0.053728
   8 H :    0.005270
   9 H :    0.063780
  10 H :    0.052272
  11 H :    0.035677
  12 H :    0.061490
  13 H :    0.057765
Sum of atomic charges:   -0.0000000

--------------------------------
MULLIKEN REDUCED ORBITAL CHARGES
--------------------------------
  0 C s       :     3.104221  s :     3.104221
      pz      :     1.007816  p :     2.944336
      px      :     0.969720
      py      :     0.966800
      dz2     :     0.006608  d :     0.024376
      dxz     :     0.002421
      dyz     :     0.005931
      dx2y2   :     0.004354
      dxy     :     0.005062

  1 C s       :     3.126832  s :     3.126832
      pz      :     0.936732  p :     2.696169
      px      :     0.870640
      py      :     0.888797
      dz2     :     0.017145  d :     0.077904
      dxz     :     0.011800
      dyz     :     0.015356
      dx2y2   :     0.017013
      dxy     :     0.016589

  2 O s       :     3.800914  s :     3.800914
      pz      :     1.726326  p :     4.539921
      px      :     1.251319
      py      :     1.562276
      dz2     :     0.001947  d :     0.015137
      dxz     :     0.002207
      dyz     :     0.003349
      dx2y2   :     0.003569
      dxy     :     0.004066

  3 C s       :     3.089126  s :     3.089126
      pz      :     0.984214  p :     2.745223
      px      :     0.782871
      py      :     0.978138
      dz2     :     0.008878  d :     0.033291
      dxz     :     0.002226
      dyz     :     0.007379
      dx2y2   :     0.006335
      dxy     :     0.008472

  4 C s       :     3.131193  s :     3.131193
      pz      :     0.990826  p :     2.970981
      px      :     1.016919
      py      :     0.963236
      dz2     :     0.008872  d :     0.034530
      dxz     :     0.003020
      dyz     :     0.008655
      dx2y2   :     0.007228
      dxy     :     0.006754

  5 C s       :     3.136815  s :     3.136815
      pz      :     0.997194  p :     2.876548
      px      :     0.887446
      py      :     0.991909
      dz2     :     0.008716  d :     0.028490
      dxz     :     0.002541
      dyz     :     0.005802
      dx2y2   :     0.007550
      dxy     :     0.003881

  6 H s       :     0.930558  s :     0.930558
      pz      :     0.006042  p :     0.023418
      px      :     0.008885
      py      :     0.008492

  7 H s       :     0.922781  s :     0.922781
      pz      :     0.014432  p :     0.023490
      px      :     0.004947
      py      :     0.004111

  8 H s       :     0.974090  s :     0.974090
      pz      :     0.013206  p :     0.020640
      px      :     0.004482
      py      :     0.002952

  9 H s       :     0.913586  s :     0.913586
      pz      :     0.007019  p :     0.022634
      px      :     0.005233
      py      :     0.010382

 10 H s       :     0.924450  s :     0.924450
      pz      :     0.014927  p :     0.023278
      px      :     0.003898
      py      :     0.004453

 11 H s       :     0.941223  s :     0.941223
      pz      :     0.014061  p :     0.023100
      px      :     0.005683
      py      :     0.003356

 12 H s       :     0.915372  s :     0.915372
      pz      :     0.005877  p :     0.023138
      px      :     0.003915
      py      :     0.013346

 13 H s       :     0.918848  s :     0.918848
      pz      :     0.014633  p :     0.023387
      px      :     0.004757
      py      :     0.003997



                     *******************************
                     * LOEWDIN POPULATION ANALYSIS *
                     *******************************

----------------------
LOEWDIN ATOMIC CHARGES
----------------------
   0 C :   -0.079149
   1 C :    0.036320
   2 O :   -0.199004
   3 C :    0.108576
   4 C :   -0.109139
   5 C :    0.029707
   6 H :    0.027023
   7 H :    0.029889
   8 H :   -0.003425
   9 H :    0.036440
  10 H :    0.029944
  11 H :    0.029393
  12 H :    0.034409
  13 H :    0.029015

-------------------------------
LOEWDIN REDUCED ORBITAL CHARGES
-------------------------------
  0 C s       :     2.907025  s :     2.907025
      pz      :     1.060526  p :     3.107635
      px      :     0.990209
      py      :     1.056901
      dz2     :     0.017853  d :     0.064488
      dxz     :     0.005901
      dyz     :     0.016941
      dx2y2   :     0.011430
      dxy     :     0.012364

  1 C s       :     2.875129  s :     2.875129
      pz      :     1.006991  p :     2.906979
      px      :     0.900590
      py      :     0.999398
      dz2     :     0.040719  d :     0.181572
      dxz     :     0.027913
      dyz     :     0.036561
      dx2y2   :     0.038545
      dxy     :     0.037834

  2 O s       :     3.557608  s :     3.557608
      pz      :     1.738972  p :     4.615282
      px      :     1.279937
      py      :     1.596373
      dz2     :     0.003225  d :     0.026114
      dxz     :     0.004068
      dyz     :     0.005188
      dx2y2   :     0.005902
      dxy     :     0.007730

  3 C s       :     2.899954  s :     2.899954
      pz      :     1.053811  p :     2.911965
      px      :     0.795414
      py      :     1.062740
      dz2     :     0.022438  d :     0.079505
      dxz     :     0.004657
      dyz     :     0.019308
      dx2y2   :     0.015341
      dxy     :     0.017761

  4 C s       :     2.863903  s :     2.863903
      pz      :     1.054493  p :     3.154835
      px      :     1.043063
      py      :     1.057279
      dz2     :     0.023014  d :     0.090400
      dxz     :     0.007914
      dyz     :     0.024044
      dx2y2   :     0.018269
      dxy     :     0.017159

  5 C s       :     2.897473  s :     2.897473
      pz      :     1.052324  p :     3.002603
      px      :     0.902192
      py      :     1.048087
      dz2     :     0.022241  d :     0.070218
      dxz     :     0.006276
      dyz     :     0.015571
      dx2y2   :     0.016538
      dxy     :     0.009591

  6 H s       :     0.902421  s :     0.902421
      pz      :     0.018153  p :     0.070556
      px      :     0.027284
      py      :     0.025119

  7 H s       :     0.898526  s :     0.898526
      pz      :     0.042365  p :     0.071585
      px      :     0.016502
      py      :     0.012718

  8 H s       :     0.938233  s :     0.938233
      pz      :     0.039889  p :     0.065192
      px      :     0.015331
      py      :     0.009972

  9 H s       :     0.895507  s :     0.895507
      pz      :     0.020419  p :     0.068053
      px      :     0.017337
      py      :     0.030297

 10 H s       :     0.901040  s :     0.901040
      pz      :     0.044156  p :     0.069015
      px      :     0.012380
      py      :     0.012480

 11 H s       :     0.901853  s :     0.901853
      pz      :     0.039510  p :     0.068753
      px      :     0.017708
      py      :     0.011535

 12 H s       :     0.896696  s :     0.896696
      pz      :     0.017383  p :     0.068895
      px      :     0.012719
      py      :     0.038793

 13 H s       :     0.901272  s :     0.901272
      pz      :     0.042923  p :     0.069713
      px      :     0.014863
      py      :     0.011927



                      *****************************
                      * MAYER POPULATION ANALYSIS *
                      *****************************

  NA   - Mulliken gross atomic population
  ZA   - Total nuclear charge
  QA   - Mulliken gross atomic charge
  VA   - Mayer's total valence
  BVA  - Mayer's bonded valence
  FA   - Mayer's free valence

  ATOM       NA         ZA         QA         VA         BVA        FA
  0 C      6.0729     6.0000    -0.0729     3.8609     3.8609     0.0000
  1 C      5.9009     6.0000     0.0991     4.1251     4.1251    -0.0000
  2 O      8.3560     8.0000    -0.3560     2.0965     2.0965    -0.0000
  3 C      5.8676     6.0000     0.1324     3.9387     3.9387    -0.0000
  4 C      6.1367     6.0000    -0.1367     4.0406     4.0406     0.0000
  5 C      6.0419     6.0000    -0.0419     3.9739     3.9739    -0.0000
  6 H      0.9540     1.0000     0.0460     0.9809     0.9809    -0.0000
  7 H      0.9463     1.0000     0.0537     0.9956     0.9956    -0.0000
  8 H      0.9947     1.0000     0.0053     0.9812     0.9812    -0.0000
  9 H      0.9362     1.0000     0.0638     0.9848     0.9848    -0.0000
 10 H      0.9477     1.0000     0.0523     0.9868     0.9868    -0.0000
 11 H      0.9643     1.0000     0.0357     0.9888     0.9888     0.0000
 12 H      0.9385     1.0000     0.0615     0.9782     0.9782    -0.0000
 13 H      0.9422     1.0000     0.0578     0.9869     0.9869    -0.0000

  Mayer bond orders larger than 0.100000
B(  0-C ,  1-C ) :   1.5302 B(  0-C ,  5-C ) :   0.3613 B(  0-C ,  6-H ) :   0.9553 
B(  0-C ,  7-H ) :   0.9492 B(  1-C ,  2-O ) :   1.4782 B(  1-C ,  8-H ) :   0.9628 
B(  2-O ,  3-C ) :   0.4749 B(  3-C ,  4-C ) :   1.4153 B(  3-C ,  9-H ) :   0.9616 
B(  3-C , 10-H ) :   0.9619 B(  4-C ,  5-C ) :   1.5589 B(  4-C , 11-H ) :   0.9686 
B(  5-C , 12-H ) :   0.9603 B(  5-C , 13-H ) :   0.9642 

-------
TIMINGS
-------

Total SCF time: 0 days 0 hours 0 min 4 sec 

Total time                  ....       4.326 sec
Sum of individual times     ....       4.292 sec  ( 99.2%)

SCF preparation             ....       0.204 sec  (  4.7%)
Fock matrix formation       ....       3.901 sec  ( 90.2%)
  Startup                   ....       0.045 sec  (  1.2% of F)
  Split-RI-J                ....       0.289 sec  (  7.4% of F)
  Chain of spheres X        ....       2.215 sec  ( 56.8% of F)
  XC integration            ....       0.359 sec  (  9.2% of F)
    Basis function eval.    ....       0.101 sec  ( 28.3% of XC)
    Density eval.           ....       0.042 sec  ( 11.7% of XC)
    XC-Functional eval.     ....       0.045 sec  ( 12.6% of XC)
    XC-Potential eval.      ....       0.055 sec  ( 15.3% of XC)
Diagonalization             ....       0.000 sec  (  0.0%)
Density matrix formation    ....       0.011 sec  (  0.2%)
Total Energy calculation    ....       0.083 sec  (  1.9%)
Population analysis         ....       0.008 sec  (  0.2%)
Orbital Transformation      ....       0.008 sec  (  0.2%)
Orbital Orthonormalization  ....       0.000 sec  (  0.0%)
DIIS solution               ....       0.048 sec  (  1.1%)
SOSCF solution              ....       0.031 sec  (  0.7%)
Finished LeanSCF after   4.3 sec

Maximum memory used throughout the entire LEANSCF-calculation: 12.8 MB


           ************************************************************
           *        Program running with 16 parallel MPI-processes    *
           *              working on a common directory               *
           ************************************************************

------------------------------------------------------------------------------
                         ORCA PROPERTY INTEGRAL CALCULATIONS
------------------------------------------------------------------------------

GBWName                                   ... /tmp/774501/claisen_ts.gbw
Number of atoms                           ...     14
Number of basis functions                 ...    124
Max core memory                           ...   1024 MB

Dipole integrals                          ... YES
Quadrupole integrals                      ...  NO
Linear momentum integrals                 ...  NO
Angular momentum integrals                ...  NO
Higher moments length integrals           ...  NO
Higher moments velocity integrals         ...  NO
Kinetic energy integrals                  ...  NO
GIAO right hand sides                     ...  NO
GIAO dipole derivative integrals          ...  NO
SOC integrals                             ...  NO
EPR diamagnetic integrals (GIAO)          ...  NO
EPR gauge integrals                       ...  NO
Field gradient integrals                  ...  NO (   0 nuclei)
Spin-dipole/Fermi contact integrals       ...  NO (   0 nuclei)
Contact density integrals                 ...  NO (   0 nuclei)
Nucleus-orbit integrals                   ...  NO (   0 nuclei)
Geometric perturbations                   ...  NO (  14 nuclei)

Choice of electric origin   ... Center of mass
Position of electric origin ... ( -0.0145, -0.0747, -0.0216) 
Choice of magnetic origin   ... GIAO
Position of magnetic origin ... (  0.0000,  0.0000,  0.0000) 

Calculating integrals                     ... Electric Dipole (Length)     done (  0.0 sec)

Property integrals calculated in   0.0 sec

Maximum memory used throughout the entire PROPINT-calculation: 7.9 MB


-------------------------------------------------------------------------------
                          DFT DISPERSION CORRECTION                            
                                                                               
                              DFTD3 V3.1  Rev 1                                
                              USING zero damping                               
-------------------------------------------------------------------------------
The omegaB97X-D3 functional is recognized. Fit by Chai et al.
Active option DFTDOPT                   ...         3   

molecular C6(AA) [au] = 1790.995037 


            DFT-D V3
 parameters
 s6 scaling factor         :     1.0000 
 rs6 scaling factor        :     1.2810 
 s8 scaling factor         :     1.0000 
 rs8 scaling factor        :     1.0940 
 Damping factor alpha6     :    14.0000 
 Damping factor alpha8     :    16.0000 
 ad hoc parameters k1-k3   :    16.0000     1.3333    -4.0000 

 Edisp/kcal,au: -2.491316663901  -0.003970165394 
 E6   /kcal   :  -0.924477835 
 E8   /kcal   :  -1.566838828 
 % E8         :  62.891998080 

-------------------------   ----------------
Dispersion correction           -0.003970165
-------------------------   ----------------


-------------------------   --------------------
FINAL SINGLE POINT ENERGY      -270.175673408314
-------------------------   --------------------



           ************************************************************
           *        Program running with 16 parallel MPI-processes    *
           *              working on a common directory               *
           ************************************************************
------------------------------------------------------------------------------
                         ORCA SCF GRADIENT CALCULATION
------------------------------------------------------------------------------

Nuc. rep. gradient        (SHARK) ... done (  0.0 sec)
HCore & Overlap gradient  (SHARK) ... done (  0.1 sec)
Split-RIJ-J gradient      (SHARK) ... done (  0.1 sec)
COSX-gradient                     ... done (  1.2 sec)
XC gradient                       ... done (  0.2 sec)
Dispersion correction             ... done (  0.0 sec)

-------------------
DISPERSION GRADIENT
-------------------

   1   C   :    0.000171932    0.000003135    0.000076506
   2   C   :    0.000137647    0.000081619    0.000052203
   3   O   :    0.000193162    0.000070759    0.000087311
   4   C   :   -0.000056245    0.000068613    0.000016137
   5   C   :   -0.000171676   -0.000068402    0.000008092
   6   C   :   -0.000142886   -0.000151982   -0.000056684
   7   H   :   -0.000025397    0.000009815    0.000028586
   8   H   :    0.000071668   -0.000004160    0.000069972
   9   H   :   -0.000065675   -0.000005578   -0.000036455
  10   H   :   -0.000030316   -0.000001546   -0.000027646
  11   H   :   -0.000123635    0.000068657   -0.000106848
  12   H   :    0.000082395    0.000025219    0.000005150
  13   H   :   -0.000012901   -0.000003999   -0.000047757
  14   H   :   -0.000028074   -0.000092151   -0.000068569

Difference to translation invariance:
           :    0.0000000000   -0.0000000000    0.0000000000

Difference to rotation invariance:
           :   -0.0000000000    0.0000000000   -0.0000000000

Norm of the Dispersion gradient    ...    0.0005263599
RMS gradient                       ...    0.0000812191
MAX gradient                       ...    0.0001931619

------------------
CARTESIAN GRADIENT
------------------

   1   C   :   -0.003164298    0.006270462   -0.004125457
   2   C   :   -0.007910075    0.002125877    0.008190409
   3   O   :   -0.000460617   -0.009418717   -0.005599201
   4   C   :    0.008540474   -0.002732736    0.003458960
   5   C   :    0.003766503   -0.001411946   -0.004047677
   6   C   :   -0.001729841    0.007328025    0.003695985
   7   H   :    0.002858745   -0.002686034   -0.002441408
   8   H   :   -0.001577745   -0.000219760    0.005236670
   9   H   :    0.001777072    0.001020581   -0.003201065
  10   H   :   -0.002304207    0.003356764    0.002577294
  11   H   :    0.000490744    0.000497784   -0.005071207
  12   H   :   -0.001628674   -0.000752017    0.003992398
  13   H   :    0.000343048   -0.004119179    0.002499936
  14   H   :    0.000998871    0.000740894   -0.005165637

Difference to translation invariance:
           :    0.0000000000   -0.0000000001   -0.0000000000

Difference to rotation invariance:
           :    0.0004367461    0.0002816314    0.0000355306

Norm of the Cartesian gradient     ...    0.0264950702
RMS gradient                       ...    0.0040882781
MAX gradient                       ...    0.0094187167

-------
TIMINGS
-------

Total SCF gradient time     ....        1.510 sec

Densities                   ....       0.000 sec  (  0.0%)
One electron gradient       ....       0.055 sec  (  3.6%)
RI-J Coulomb gradient       ....       0.117 sec  (  7.8%)
COSX gradient               ....       1.158 sec  ( 76.7%)
XC gradient                 ....       0.150 sec  ( 10.0%)

Maximum memory used throughout the entire SCFGRAD-calculation: 27.6 MB
------------------------------------------------------------------------------
                         ORCA GEOMETRY RELAXATION STEP
------------------------------------------------------------------------------

Reading the OPT-File                    .... done
Getting information on internals        .... done
Copying old internal coords+grads       .... done
Making the new internal coordinates     .... (2022 redundants) done
Validating the new internal coordinates .... (2022 redundants) done
Calculating the B-matrix                .... done
Calculating the G,G- and P matrices     .... done
Transforming gradient to internals      .... done
Projecting the internal gradient        .... done
Number of atoms                         ....  14
Number of internal coordinates          ....  50
Current Energy                          ....  -270.175673408 Eh
Current gradient norm                   ....     0.026495070 Eh/bohr
Maximum allowed component of the step   ....  0.300
Current trust radius                    ....  0.300
Evaluating the initial hessian          ....  (Almloef) done
Projecting the Hessian                  .... done
Diagonalizing the Hessian               .... done
Dimension of the hessian                ....  50
Lowest eigenvalues of the Hessian:
  0.001918272  0.026727660  0.028509420  0.028516836  0.033279535
Hessian has   0 negative eigenvalues
Taking P-RFO step
Searching for lambda that maximizes along the lowest mode
TS mode is mode number   0 with eigenvalue   0.00191827 and components:
   1.    0.00000000
   2.    0.00000000
   3.    0.00000000
   4.    0.00000000
   5.   -0.00000000
   6.   -0.00000000
   7.   -0.00000000
   8.   -0.00000000
   9.    0.00000000
  10.    0.00000000
  11.    0.00000000
  12.    0.00000000
  13.   -0.00000000
  14.    0.00000000
  15.   -0.00000000
  16.   -0.00000000
  17.    0.00000000
  18.    0.00000000
  19.    0.00000000
  20.    0.00000000
  21.    0.00000000
  22.    0.00000000
  23.    0.00000000
  24.   -0.00000000
  25.   -0.00000000
  26.    0.00000000
  27.    0.00000000
  28.    0.00000000
  29.    0.00000000
  30.    0.00000000
  31.    0.00000000
  32.   -0.00000000
  33.   -0.00000000
  34.    0.00000000
  35.   -0.00000000
  36.    0.00000000
  37.    0.00000000
  38.    0.00000000
  39.    0.57735027
  40.    0.57735027
  41.    0.57735027
  42.   -0.00000000
  43.   -0.00000000
  44.   -0.00000000
  45.   -0.00000000
  46.    0.00000000
  47.   -0.00000000
  48.    0.00000000
  49.   -0.00000000
  50.   -0.00000000

Lambda that maximizes along the TS mode:       0.00210198
Searching for lambda that minimizes along all other modes
In cycle   1: lambdaN =  -0.00223889   step =   0.00223889
In cycle   2: lambdaN =  -0.00224031   step =   0.00000142
In cycle   3: lambdaN =  -0.00224031   step =   0.00000000
Lambda that minimizes along all other modes:  -0.00224031
Calculated stepsize too large (   0.5375 >    0.3000). Scaled with    0.5582.
The final length of the internal step   ....       0.3000
Converting the step to Cartesian space:
 Initial RMS(Int)=    0.0424264069
Transforming coordinates:
 Iter   0:  RMS(Cart)=    0.1599331856 RMS(Int)=    0.8660277202
 Iter   5:  RMS(Cart)=    0.0000044814 RMS(Int)=    0.0000019070
done
Storing new coordinates                 .... done

                                .--------------------.
          ----------------------|Geometry convergence|-------------------------
          Item                value                   Tolerance       Converged
          ---------------------------------------------------------------------
          RMS gradient        0.0032845058            0.0001000000      NO
          MAX gradient        0.0107825381            0.0003000000      NO
          RMS step            0.0424264069            0.0020000000      NO
          MAX step            0.1674529850            0.0040000000      NO
          ........................................................
          Max(Bonds)      0.0311      Max(Angles)    0.80
          Max(Dihed)        9.59      Max(Improp)    0.00
          ---------------------------------------------------------------------

The optimization has not yet converged - more geometry cycles are needed


    ---------------------------------------------------------------------------
                         Redundant Internal Coordinates
                            (Angstroem and degrees)

        Definition                    Value    dE/dq     Step     New-Value  comp.(TS mode)
    ----------------------------------------------------------------------------
     1. B(C   1,C   0)                1.3832  0.003828 -0.0018    1.3815   
     2. B(O   2,C   1)                1.2878  0.010783 -0.0039    1.2839   
     3. B(C   3,O   2)                1.9043  0.009144 -0.0311    1.8732   
     4. B(C   4,C   3)                1.4021  0.001452 -0.0007    1.4014   
     5. B(C   5,C   4)                1.3832  0.003552 -0.0016    1.3816   
     6. B(H   6,C   0)                1.0877 -0.004594  0.0037    1.0915   
     7. B(H   7,C   0)                1.0838 -0.005416  0.0043    1.0881   
     8. B(H   8,C   1)                1.1042 -0.003738  0.0032    1.1074   
     9. B(H   9,C   3)                1.0847 -0.004812  0.0038    1.0885   
    10. B(H  10,C   3)                1.0859 -0.005098  0.0041    1.0900   
    11. B(H  11,C   4)                1.0884 -0.004360  0.0035    1.0919   
    12. B(H  12,C   5)                1.0866 -0.004773  0.0038    1.0904   
    13. B(H  13,C   5)                1.0856 -0.005299  0.0043    1.0899   
    14. A(H   6,C   0,H   7)          116.86 -0.000868    0.09    116.95   
    15. A(C   1,C   0,H   6)          119.90  0.000303   -0.03    119.88   
    16. A(C   1,C   0,H   7)          119.86  0.000608   -0.05    119.80   
    17. A(C   0,C   1,H   8)          117.87 -0.000976    0.06    117.93   
    18. A(C   0,C   1,O   2)          122.86  0.001840   -0.15    122.71   
    19. A(O   2,C   1,H   8)          118.15 -0.000769    0.04    118.18   
    20. A(C   1,O   2,C   3)          108.35  0.005800   -0.58    107.77   
    21. A(O   2,C   3,C   4)          101.92  0.006578   -0.80    101.12   
    22. A(C   4,C   3,H  10)          119.44 -0.000150    0.01    119.45   
    23. A(O   2,C   3,H  10)           95.12 -0.001419    0.01     95.13   
    24. A(C   4,C   3,H   9)          120.15 -0.000902    0.12    120.27   
    25. A(O   2,C   3,H   9)           97.22 -0.003073    0.30     97.52   
    26. A(H   9,C   3,H  10)          114.46 -0.000114    0.12    114.58   
    27. A(C   3,C   4,H  11)          118.01 -0.001766    0.08    118.08   
    28. A(C   5,C   4,H  11)          118.64 -0.001249    0.04    118.68   
    29. A(C   3,C   4,C   5)          119.83  0.003476   -0.32    119.51   
    30. A(H  12,C   5,H  13)          114.97 -0.000685    0.10    115.07   
    31. A(C   4,C   5,H  13)          120.49  0.000305   -0.00    120.49   
    32. A(C   4,C   5,H  12)          121.07  0.000304   -0.00    121.07   
    33. D(O   2,C   1,C   0,H   7)     20.75 -0.000166    0.11     20.86   
    34. D(H   8,C   1,C   0,H   7)   -171.61  0.000239   -0.19   -171.80   
    35. D(O   2,C   1,C   0,H   6)    179.35 -0.000220    0.17    179.51   
    36. D(H   8,C   1,C   0,H   6)    -13.02  0.000185   -0.13    -13.15   
    37. D(C   3,O   2,C   1,H   8)    -90.56  0.001483   -0.85    -91.42   
    38. D(C   3,O   2,C   1,C   0)     77.04  0.001866   -1.15     75.89   
    39. D(C   4,C   3,O   2,C   1)    -54.95 -0.000708   -9.59    -64.54          0.58
    40. D(H  10,C   3,O   2,C   1)     66.60  0.000249   -9.59     57.00          0.58
    41. D(H   9,C   3,O   2,C   1)   -177.91 -0.000618   -9.59   -187.51          0.58
    42. D(H  11,C   4,C   3,H   9)     16.10  0.000575   -0.46     15.64   
    43. D(H  11,C   4,C   3,O   2)    -89.63  0.000304   -0.35    -89.97   
    44. D(C   5,C   4,C   3,H  10)    -34.02 -0.001012   -0.42    -34.43   
    45. D(C   5,C   4,C   3,H   9)    174.65  0.001632   -1.02    173.62   
    46. D(C   5,C   4,C   3,O   2)     68.92  0.001361   -0.91     68.01   
    47. D(H  12,C   5,C   4,C   3)   -172.76 -0.000842    0.61   -172.15   
    48. D(H  13,C   5,C   4,H  11)   -172.29  0.000501   -0.26   -172.55   
    49. D(H  13,C   5,C   4,C   3)     29.30 -0.000462    0.30     29.60   
    50. D(H  12,C   5,C   4,H  11)    -14.35  0.000120    0.05    -14.30   
    ----------------------------------------------------------------------------

Geometry step timings:
Preparation and reading OPT file:      0.000 s (10.000 %)
Internal coordinates            :      0.000 s ( 1.205 %)
B/P matrices and projection     :      0.000 s (22.530 %)
Hessian update/contruction      :      0.000 s ( 7.289 %)
Making the step                 :      0.001 s (36.084 %)
Converting the step to Cartesian:      0.000 s ( 4.157 %)
Storing new data                :      0.000 s ( 1.145 %)
Checking convergence            :      0.000 s ( 0.060 %)
Final printing                  :      0.000 s (17.169 %)
Total time                      :      0.002 s

Time for energy+gradient        :      8.266 s
Time for complete geometry iter :      8.589 s

         *************************************************************
         *                GEOMETRY OPTIMIZATION CYCLE   2            *
         *************************************************************
---------------------------------
CARTESIAN COORDINATES (ANGSTROEM)
---------------------------------
  C     -1.438208    0.805916   -0.154621
  C     -1.284509   -0.510492    0.235126
  O     -0.475293   -1.317360   -0.350123
  C      1.261197   -0.889889    0.207228
  C      1.404127    0.400982   -0.319262
  C      0.648518    1.434927    0.199127
  H     -2.145804    1.449508    0.371089
  H     -1.144958    1.110850   -1.157137
  H     -1.717786   -0.817659    1.206910
  H      1.771178   -1.731676   -0.257746
  H      1.055998   -1.016087    1.270282
  H      1.809331    0.502705   -1.328074
  H      0.643777    2.418896   -0.270701
  H      0.331691    1.419437    1.241801

----------------------------
CARTESIAN COORDINATES (A.U.)
----------------------------
  NO LB      ZA    FRAG     MASS         X           Y           Z
   0 C     6.0000    0    12.011   -2.717819    1.522960   -0.292191
   1 C     6.0000    0    12.011   -2.427370   -0.964689    0.444325
   2 O     8.0000    0    15.999   -0.898173   -2.489449   -0.661637
   3 C     6.0000    0    12.011    2.383317   -1.681647    0.391604
   4 C     6.0000    0    12.011    2.653415    0.757746   -0.603318
   5 C     6.0000    0    12.011    1.225521    2.711619    0.376295
   6 H     1.0000    0     1.008   -4.054982    2.739173    0.701258
   7 H     1.0000    0     1.008   -2.163658    2.099202   -2.186673
   8 H     1.0000    0     1.008   -3.246144   -1.545152    2.280730
   9 H     1.0000    0     1.008    3.347041   -3.272394   -0.487069
  10 H     1.0000    0     1.008    1.995547   -1.920126    2.400484
  11 H     1.0000    0     1.008    3.419139    0.949974   -2.509696
  12 H     1.0000    0     1.008    1.216563    4.571052   -0.511551
  13 H     1.0000    0     1.008    0.626804    2.682348    2.346664

--------------------------------
INTERNAL COORDINATES (ANGSTROEM)
--------------------------------
 C      0   0   0     0.000000000000     0.00000000     0.00000000
 C      1   0   0     1.381468381176     0.00000000     0.00000000
 O      2   1   0     1.283894004527   122.70925252     0.00000000
 C      3   2   1     1.873170572115   107.77276208    75.89111402
 C      4   3   2     1.401416859484   101.12617673   295.49931509
 C      5   4   3     1.381562260184   119.51226057    68.01673029
 H      1   2   3     1.091455700583   119.87662527   179.51417783
 H      1   2   3     1.088126479470   119.80070976    20.86338035
 H      2   1   3     1.107449752698   117.92649375   167.33719024
 H      4   3   2     1.088524816467    97.51252109   172.53573848
 H      4   3   2     1.090007068279    95.12029172    56.91880039
 H      5   4   3     1.091896745802   118.08357147   270.03065621
 H      6   5   4     1.090393184771   121.06754123   187.84918208
 H      6   5   4     1.089857510534   120.48630466    29.59856344

---------------------------
INTERNAL COORDINATES (A.U.)
---------------------------
 C      0   0   0     0.000000000000     0.00000000     0.00000000
 C      1   0   0     2.610596903094     0.00000000     0.00000000
 O      2   1   0     2.426208053539   122.70925252     0.00000000
 C      3   2   1     3.539779383419   107.77276208    75.89111402
 C      4   3   2     2.648294063885   101.12617673   295.49931509
 C      5   4   3     2.610774308708   119.51226057    68.01673029
 H      1   2   3     2.062552361410   119.87662527   179.51417783
 H      1   2   3     2.056261045267   119.80070976    20.86338035
 H      2   1   3     2.092776739678   117.92649375   167.33719024
 H      4   3   2     2.057013793099    97.51252109   172.53573848
 H      4   3   2     2.059814843085    95.12029172    56.91880039
 H      5   4   3     2.063385816085   118.08357147   270.03065621
 H      6   5   4     2.060544497511   121.06754123   187.84918208
 H      6   5   4     2.059532219907   120.48630466    29.59856344



           ************************************************************
           *        Program running with 16 parallel MPI-processes    *
           *              working on a common directory               *
           ************************************************************
------------------------------------------------------------------------------
                   ___                                                        
                  /   \      - P O W E R E D   B Y -                         
                 /     \                                                     
                 |  |  |   _    _      __       _____    __    __             
                 |  |  |  | |  | |    /  \     |  _  \  |  |  /  |          
                  \  \/   | |  | |   /    \    | | | |  |  | /  /          
                 / \  \   | |__| |  /  /\  \   | |_| |  |  |/  /          
                |  |  |   |  __  | /  /__\  \  |    /   |      \           
                |  |  |   | |  | | |   __   |  |    \   |  |\   \          
                \     /   | |  | | |  |  |  |  | |\  \  |  | \   \       
                 \___/    |_|  |_| |__|  |__|  |_| \__\ |__|  \__/        
                                                                              
                      - O R C A' S   B I G   F R I E N D -                    
                                      &                                       
                       - I N T E G R A L  F E E D E R -                       
                                                                              
 v1 FN, 2020, v2 2021, v3 2022-2024                                           
------------------------------------------------------------------------------


----------------------
SHARK INTEGRAL PACKAGE
----------------------

Number of atoms                             ...     14
Number of basis functions                   ...    124
Number of shells                            ...     60
Maximum angular momentum                    ...      2
Integral batch strategy                     ... SHARK/LIBINT Hybrid
RI-J (if used) integral strategy            ... SPLIT-RIJ (Revised 2003 algorithm where possible)
Printlevel                                  ...      1
Contraction scheme used                     ... SEGMENTED contraction
Prescreening option                         ... SCHWARTZ
   Thresh                                   ... 2.500e-11
   Tcut                                     ... 2.500e-12
   Tpresel                                  ... 2.500e-12 
Coulomb Range Separation                    ... NOT USED
Exchange Range Separation                   ... Long Range
   Mu parameter                             ... 2.500e-01
   Scaling (regular/separated)              ... 1.957e-01 8.043e-01
Multipole approximations                    ... NOT USED
Finite Nucleus Model                        ... NOT USED
CABS basis                                  ... NOT available
Auxiliary Coulomb fitting basis             ... AVAILABLE
   # of basis functions in Aux-J            ...    382
   # of shells in Aux-J                     ...    130
   Maximum angular momentum in Aux-J        ...      4
Auxiliary J/K fitting basis                 ... NOT available
Auxiliary Correlation fitting basis         ... NOT available
[...]
     33       0.007552  -0.036510  -0.064872  -0.081665  -0.000328   0.038871
     34      -0.033507   0.051475   0.286784   0.312533  -0.000012   0.020228
     35       0.001464   0.086434  -0.019485  -0.001298   0.000613  -0.127470
     36      -0.028337  -0.155373   0.028284   0.046769   0.000521   0.023282
     37       0.030928   0.111566  -0.046941   0.074210   0.001871  -0.610484
     38       0.118221   0.382598  -0.383908  -0.197061   0.000698   0.267125
     39       0.001753  -0.039144  -0.002872   0.061191   0.002940   0.133740
     40       0.141239   0.344241  -0.452001  -0.276311   0.001896   0.048185
     41      -0.000401  -0.054481   0.049416   0.098885  -0.001262  -0.692841
                 36         37         38         39         40         41    
      0       0.030086  -0.006139   0.000126   0.000607   0.002803  -0.045150
      1      -0.054773   0.011808   0.000375  -0.000005  -0.001517   0.022848
      2       0.023175  -0.004950  -0.000136  -0.001367  -0.005191   0.085633
      3       0.001215   0.000116   0.000178   0.000122  -0.000423  -0.001563
      4       0.007476  -0.001965   0.000075  -0.000176   0.000165   0.000395
      5      -0.007035   0.001101   0.000128  -0.000105  -0.000083   0.002668
      6      -0.000646  -0.000314   0.000187  -0.000076  -0.000074   0.000186
      7       0.000148   0.000467  -0.000065   0.000220   0.000266  -0.000133
      8       0.000251  -0.000359   0.000028   0.000082   0.000579  -0.000174
      9       0.003535   0.014468   0.002133   0.000915   0.035691   0.002471
     10      -0.010314  -0.049957   0.004156  -0.000389  -0.045888  -0.002830
     11       0.009640   0.043770  -0.012046  -0.001506  -0.080159  -0.004912
     12      -0.000472  -0.002132  -0.027553  -0.003201   0.002538   0.000094
     13       0.001475   0.003991  -0.011545  -0.001064   0.002400  -0.000095
     14      -0.000047   0.006117   0.080362   0.008758  -0.007696  -0.000527
     15       0.001794  -0.001358   0.005514  -0.007636  -0.000300  -0.000365
     16      -0.008162   0.004155  -0.004439  -0.060378   0.000962  -0.000835
     17      -0.006904   0.001900  -0.015268   0.078434  -0.000415   0.000338
     18      -0.476187   0.099707   0.001019  -0.004824  -0.023716   0.375051
     19       0.495391  -0.103519  -0.001618   0.005227   0.024850  -0.392961
     20       0.326997  -0.068512  -0.001644   0.003370   0.015992  -0.250668
     21       0.133045  -0.028621  -0.002252  -0.003951  -0.010143   0.170701
     22       0.077879  -0.016467  -0.000425  -0.002299  -0.007247   0.115424
     23      -0.564655   0.118067   0.004445   0.006796   0.046202  -0.764892
     24      -0.017992   0.004000  -0.000518   0.000843  -0.001462   0.008743
     25      -0.013555   0.002519   0.000011   0.000438  -0.000300   0.005234
     26       0.046023  -0.007375   0.000316  -0.001821   0.001443  -0.025310
     27      -0.053537  -0.250161  -0.009967  -0.008161  -0.364262  -0.022465
     28       0.087668   0.411439   0.011645   0.011411   0.610303   0.037848
     29       0.061168   0.285643   0.009925   0.007226   0.404866   0.025007
     30       0.016687   0.079683  -0.012274  -0.000061  -0.053432  -0.003420
     31       0.025232   0.116751  -0.018705   0.001025  -0.089535  -0.005289
     32      -0.171531  -0.778802   0.118146   0.007754   0.546662   0.033593
     33       0.000741   0.028959   0.289901   0.029248  -0.024694   0.000142
     34      -0.000180   0.012477   0.134860   0.011907  -0.013896  -0.000300
     35      -0.001045  -0.093021  -0.919991  -0.093873   0.081699   0.002289
     36      -0.001747   0.001705  -0.002956  -0.030057   0.000915   0.000128
     37       0.099395  -0.051650   0.020711   0.674329  -0.006839   0.009969
     38      -0.043163   0.020863  -0.008307  -0.279553   0.003293  -0.004099
     39      -0.021611   0.010670  -0.032352   0.127706  -0.002335  -0.001430
     40      -0.008027   0.001957  -0.009882   0.033403   0.001283   0.000040
     41       0.117850  -0.042370   0.164654  -0.654675   0.005298  -0.004551


-----------
IR SPECTRUM
-----------

 Mode   freq       eps      Int      T**2         TX        TY        TZ
       cm**-1   L/(mol*cm) km/mol    a.u.
----------------------------------------------------------------------------
  7:    178.78   0.000593    3.00  0.001036  ( 0.002709  0.017824 -0.026663)
  8:    292.38   0.006192   31.29  0.006608  (-0.074322 -0.032191 -0.006956)
  9:    335.39   0.000126    0.64  0.000117  ( 0.004392  0.009086 -0.003934)
 10:    393.01   0.000158    0.80  0.000126  (-0.002751  0.010850 -0.000686)
 11:    444.18   0.001765    8.92  0.001240  ( 0.013023  0.028160  0.016652)
 12:    488.80   0.000375    1.90  0.000240  ( 0.014594  0.005047 -0.001119)
 13:    545.10   0.003161   15.97  0.001809  (-0.018155 -0.036971  0.010629)
 14:    765.88   0.007001   35.38  0.002853  ( 0.053179 -0.004379  0.002324)
 15:    829.78   0.002712   13.70  0.001020  (-0.028252 -0.014884 -0.000234)
 16:    887.09   0.010315   52.13  0.003628  ( 0.044286  0.040173  0.007302)
 17:    914.69   0.002967   15.00  0.001012  (-0.023629 -0.017485 -0.012175)
 18:    972.16   0.000343    1.74  0.000110  (-0.006745 -0.006399  0.004877)
 19:   1003.37   0.005031   25.42  0.001565  (-0.035271 -0.017739  0.002434)
 20:   1010.03   0.002594   13.11  0.000801  (-0.027761  0.005370  0.001357)
 21:   1037.20   0.000274    1.39  0.000083  ( 0.004032 -0.006340 -0.005109)
 22:   1042.70   0.000170    0.86  0.000051  (-0.000628 -0.006910  0.001698)
 23:   1067.40   0.000254    1.29  0.000074  ( 0.004768  0.004327 -0.005736)
 24:   1119.99   0.000381    1.93  0.000106  ( 0.000474  0.002683  0.009938)
 25:   1252.89   0.001583    8.00  0.000394  (-0.018478  0.005872 -0.004274)
 26:   1267.38   0.002814   14.22  0.000693  (-0.020221 -0.008186  0.014731)
 27:   1291.24   0.000116    0.58  0.000028  ( 0.001246 -0.001442 -0.004930)
 28:   1362.49   0.002201   11.12  0.000504  ( 0.004161 -0.019270 -0.010741)
 29:   1414.07   0.002865   14.48  0.000632  (-0.015691  0.019647  0.000207)
 30:   1471.26   0.002303   11.64  0.000489  (-0.008115  0.009018  0.018475)
 31:   1518.75   0.001372    6.93  0.000282  (-0.003350  0.001934  0.016338)
 32:   1557.28   0.003728   18.84  0.000747  (-0.024211 -0.012606  0.001417)
 33:   1668.66   0.012979   65.59  0.002427  (-0.017716  0.045826  0.003651)
 34:   3023.89   0.014596   73.76  0.001506  ( 0.023284  0.008814 -0.029773)
 35:   3167.57   0.001229    6.21  0.000121  (-0.001364  0.008167  0.007250)
 36:   3170.68   0.001942    9.81  0.000191  ( 0.012036 -0.006797 -0.000237)
 37:   3172.12   0.001861    9.40  0.000183  ( 0.005158 -0.008193  0.009450)
 38:   3197.87   0.000880    4.45  0.000086  (-0.006798 -0.002032  0.005964)
 39:   3265.24   0.000433    2.19  0.000041  (-0.000151 -0.002352  0.005989)
 40:   3276.62   0.000759    3.84  0.000072  ( 0.002688 -0.003462 -0.007285)
 41:   3280.48   0.000442    2.23  0.000042  (-0.002856  0.002571  0.005219)

* The epsilon (eps) is given for a Dirac delta lineshape.
** The dipole moment derivative (T) already includes vibrational overlap.

The first frequency considered to be a vibration is 7
The total number of vibrations considered is 35


--------------------------
THERMOCHEMISTRY AT 298.15K
--------------------------

Temperature         ...   298.15 K
Pressure            ...     1.00 atm
Total Mass          ...    84.12 AMU
Quasi RRHO          ...     True
Cut-Off Frequency   ...     1.00 cm^-1

Throughout the following assumptions are being made:
  (1) The electronic state is orbitally nondegenerate
  (2) There are no thermally accessible electronically excited states
  (3) Hindered rotations indicated by low frequency modes are not
      treated as such but are treated as vibrations and this may
      cause some error
  (4) All equations used are the standard statistical mechanics
      equations for an ideal gas
  (5) All vibrations are strictly harmonic

freq.     178.78  E(vib)   ...       0.37 
freq.     292.38  E(vib)   ...       0.27 
freq.     335.39  E(vib)   ...       0.24 
freq.     393.01  E(vib)   ...       0.20 
freq.     444.18  E(vib)   ...       0.17 
freq.     488.80  E(vib)   ...       0.15 
freq.     545.10  E(vib)   ...       0.12 
freq.     765.88  E(vib)   ...       0.06 
freq.     829.78  E(vib)   ...       0.04 
freq.     887.09  E(vib)   ...       0.04 
freq.     914.69  E(vib)   ...       0.03 
freq.     972.16  E(vib)   ...       0.03 
freq.    1003.37  E(vib)   ...       0.02 
freq.    1010.03  E(vib)   ...       0.02 
freq.    1037.20  E(vib)   ...       0.02 
freq.    1042.70  E(vib)   ...       0.02 
freq.    1067.40  E(vib)   ...       0.02 
freq.    1119.99  E(vib)   ...       0.01 
freq.    1252.89  E(vib)   ...       0.01 
freq.    1267.38  E(vib)   ...       0.01 
freq.    1291.24  E(vib)   ...       0.01 
freq.    1362.49  E(vib)   ...       0.01 
freq.    1414.07  E(vib)   ...       0.00 
freq.    1471.26  E(vib)   ...       0.00 
freq.    1518.75  E(vib)   ...       0.00 
freq.    1557.28  E(vib)   ...       0.00 
freq.    1668.66  E(vib)   ...       0.00 
freq.    3023.89  E(vib)   ...       0.00 
freq.    3167.57  E(vib)   ...       0.00 
freq.    3170.68  E(vib)   ...       0.00 
freq.    3172.12  E(vib)   ...       0.00 
freq.    3197.87  E(vib)   ...       0.00 
freq.    3265.24  E(vib)   ...       0.00 
freq.    3276.62  E(vib)   ...       0.00 
freq.    3280.48  E(vib)   ...       0.00 

------------
INNER ENERGY
------------

The inner energy is: U= E(el) + E(ZPE) + E(vib) + E(rot) + E(trans)
    E(el)   - is the total energy from the electronic structure calculation
              = E(kin-el) + E(nuc-el) + E(el-el) + E(nuc-nuc)
    E(ZPE)  - the the zero temperature vibrational energy from the frequency calculation
    E(vib)  - the the finite temperature correction to E(ZPE) due to population
              of excited vibrational states
    E(rot)  - is the rotational thermal energy
    E(trans)- is the translational thermal energy

Summary of contributions to the inner energy U:
Electronic energy                ...   -270.17660641 Eh
Zero point energy                ...      0.11775038 Eh      73.89 kcal/mol
Thermal vibrational correction   ...      0.00297697 Eh       1.87 kcal/mol
Thermal rotational correction    ...      0.00141627 Eh       0.89 kcal/mol
Thermal translational correction ...      0.00141627 Eh       0.89 kcal/mol
-----------------------------------------------------------------------
Total thermal energy                   -270.05304651 Eh


Summary of corrections to the electronic energy:
(perhaps to be used in another calculation)
Total thermal correction                  0.00580952 Eh       3.65 kcal/mol
Non-thermal (ZPE) correction              0.11775038 Eh      73.89 kcal/mol
-----------------------------------------------------------------------
Total correction                          0.12355990 Eh      77.53 kcal/mol


--------
ENTHALPY
--------

The enthalpy is H = U + kB*T
                kB is Boltzmann's constant
Total thermal energy              ...   -270.05304651 Eh 
Thermal Enthalpy correction       ...      0.00094421 Eh       0.59 kcal/mol
-----------------------------------------------------------------------
Total Enthalpy                    ...   -270.05210231 Eh


Note: Only C1 symmetry has been detected, increase convergence thresholds 
      if your molecule has a higher symmetry. Symmetry factor of 1.0 is   
      used for the rotational entropy correction. 
 

Note: Rotational entropy computed according to Herzberg 
Infrared and Raman Spectra, Chapter V,1, Van Nostrand Reinhold, 1945 
Point Group:  C1, Symmetry Number:   1  
Rotational constants in cm-1:     0.161768     0.136162     0.084522 

Vibrational entropy computed according to the QRRHO of S. Grimme
Chem.Eur.J. 2012 18 9955 using a reference frequency of 100.0 cm-1


-------
ENTROPY
-------

The entropy contributions are T*S = T*(S(el)+S(vib)+S(rot)+S(trans))
     S(el)   - electronic entropy
     S(vib)  - vibrational entropy
     S(rot)  - rotational entropy
     S(trans)- translational entropy
The entropies will be listed as multiplied by the temperature to get
units of energy

Electronic entropy                ...      0.00000000 Eh      0.00 kcal/mol
Vibrational entropy               ...      0.00452883 Eh      2.84 kcal/mol
Rotational entropy                ...      0.01247849 Eh      7.83 kcal/mol
Translational entropy             ...      0.01862630 Eh     11.69 kcal/mol
-----------------------------------------------------------------------
Final entropy term                ...      0.03563361 Eh     22.36 kcal/mol

In case the symmetry of your molecule has not been determined correctly
or in case you have a reason to use a different symmetry number we print 
out the resulting rotational entropy values for sn=1,12:

 non-linear molecules -----------------------------------
|  sn= 1 | S(rot)=       0.01247849 Eh      7.83 kcal/mol|
|  sn= 2 | S(rot)=       0.01182403 Eh      7.42 kcal/mol|
|  sn= 3 | S(rot)=       0.01144120 Eh      7.18 kcal/mol|
|  sn= 4 | S(rot)=       0.01116957 Eh      7.01 kcal/mol|
|  sn= 5 | S(rot)=       0.01095889 Eh      6.88 kcal/mol|
|  sn= 6 | S(rot)=       0.01078674 Eh      6.77 kcal/mol|
|  sn= 7 | S(rot)=       0.01064120 Eh      6.68 kcal/mol|
|  sn= 8 | S(rot)=       0.01051512 Eh      6.60 kcal/mol|
|  sn= 9 | S(rot)=       0.01040391 Eh      6.53 kcal/mol|
|  sn=10 | S(rot)=       0.01030443 Eh      6.47 kcal/mol|
|  sn=11 | S(rot)=       0.01021444 Eh      6.41 kcal/mol|
|  sn=12 | S(rot)=       0.01013229 Eh      6.36 kcal/mol|
 linear molecules ---------------------------------------
|  Dinfh | S(rot)=       0.00765863 Eh      4.81 kcal/mol|
|  Cinfv | S(rot)=       0.00831309 Eh      5.22 kcal/mol|
 --------------------------------------------------------


-------------------
GIBBS FREE ENERGY
-------------------

The Gibbs free energy is G = H - T*S

Total enthalpy                    ...   -270.05210231 Eh 
Total entropy correction          ...     -0.03563361 Eh    -22.36 kcal/mol
-----------------------------------------------------------------------
Final Gibbs free energy         ...   -270.08773592 Eh

For completeness - the Gibbs free energy minus the electronic energy
G-E(el)                           ...      0.08887050 Eh     55.77 kcal/mol


Maximum memory used throughout the entire PROP-calculation: 35.3 MB

--------------------------------
SUGGESTED CITATIONS FOR THIS RUN
--------------------------------

Below you find a list of papers that are relevant to this ORCA run
We neither can nor want to force you to cite these papers, but we appreciate if you do
You receive ORCA, which is the product of decades of hard work by many enthusiastic individuals, for free
The only thing we kindly ask in return is that you cite our papers,
We deeply appreciate it, if you show your appreciation for ORCA by not just citing the generic ORCA reference.

Please note that relegating all ORCA citations to the supporting information does *not* help us.
SI sections are not indexed - citations you put there will not count into any citation statistics
But we need these citations in order to attract the funding resources that allow us to do what we are doing

Therefore, if you are a happy ORCA user, please consider citing a few of the papers listed below in the main body of your paper

In addition to the list printed below, the program has created the file /tmp/774501/claisen_ts.bibtex that contains the list in bibtex format
You can import this file easily into all common literature databanks and citation aid programs


List of essential papers. We consider these as the minimum necessary citations

  1. Neese,F.
     Software update: the ORCA program system, version 5.0
     WIRES Comput. Molec. Sci., 2022 12(1)e1606
     doi.org/10.1002/wcms.1606

List of papers to cite with high priority. The work reported in these papers was absolutely
necessary for this run to complete.
Our perspective: the developers of density functionals and basis sets usually get cited in chemistry papers
Good! But without the algorithms to do something with them, the functionals or basis sets would not do anything.
Hence, in our opinion, the algorithm design and method developments papers are equally worthy of getting cited

  1. Neese,F.
     An improvement of the resolution of the identity approximation for the formation of the Coulomb matrix
     J. Comp. Chem., 2003 24(14)1740-1747
     doi.org/10.1002/jcc.10318
  2. Neese,F.; Wennmohs,F.; Hansen,A.; Becker,U.
     Efficient, approximate and parallel Hartree-Fock and hybrid DFT calculations. A 'chain-of-spheres' algorithm for the Hartree-Fock exchange
     Chem. Phys., 2009 356(1-3)98-109
     doi.org/10.1016/j.chemphys.2008.10.036
  3. Bykov,D.; Petrenko,T.; Izsak,R.; Kossmann,S.; Becker,U.; Valeev,E.; Neese,F.
     Efficient implementation of the analytic second derivatives of Hartree-Fock and hybrid DFT energies: a detailed analysis of different approximations
     Molec. Phys., 2015 113 1961-1977
     doi.org/10.1080/00268976.2015.1025114
  4. Helmich-Paris,B.; de Souza,B.; Neese,F.; Izsák,R.
     An improved chain of spheres for exchange algorithm
     J. Chem. Phys., 2021 155 104109
     doi.org/doi: 10.1063/5.0058766.
  5. Neese,F.
     The SHARK Integral Generation and Digestion System
     J. Comp. Chem., 2022  1-16
     doi.org/10.1002/jcc.26942
  6. Grimme,S.; Antony,J.; Ehrlich,S.; Krieg,H.
     A consistent and accurate ab initio parametrization of density functional dispersion correction (DFT-D) for the 94 elements H-Pu
     J. Chem. Phys., 2010 132 154104-XXXX
     doi.org/10.1063/1.3382344

List of suggested additional citations. These are papers that are important in the 'surrounding' of 
of this run, or papers that preceded the highly important papers. If you like your results we are grateful for a citation.

  1. Izsak,R.; Neese,F.
     An overlap fitted chain of spheres exchange method
     J. Chem. Phys., 2011 135 144105
     doi.org/10.1063/1.3646921
  2. Izsak,R.; Hansen,A.; Neese,F.
     The resolution of identity and chain of spheres approximations for the LPNO-CCSD singles Fock term
     Molec. Phys., 2012 110 2413-2417
     doi.org/10.1080/00268976.2012.687466
  3. Neese,F.
     The ORCA program system
     WIRES Comput. Molec. Sci., 2012 2(1)73-78
     doi.org/10.1002/wcms.81
  4. Izsak,R.; Neese,F.; Klopper,W.
     Robust fitting techniques in the chain of spheres approximation to the Fock exchange: The role of the complementary space
     J. Chem. Phys., 2013 139 
     doi.org/10.1063/1.4819264
  5. Neese,F.
     Software update: the ORCA program system, version 4.0
     WIRES Comput. Molec. Sci., 2018 8(1)1-6
     doi.org/10.1002/wcms.1327
  6. Neese,F.; Wennmohs,F.; Becker,U.; Riplinger,C.
     The ORCA quantum chemistry program package
     J. Chem. Phys., 2020 152 Art. No. L224108
     doi.org/10.1063/5.0004608

List of optional additional citations

  1. Neese,F.
     Approximate second-order SCF convergence for spin unrestricted wavefunctions
     Chem. Phys. Lett., 2000 325(1-3)93-98
     doi.org/10.1016/s0009-2614(00)00662-x

Timings for individual modules:

Sum of individual times          ...      156.537 sec (=   2.609 min)
Startup calculation              ...       18.606 sec (=   0.310 min)  11.9 %
SCF iterations                   ...       77.512 sec (=   1.292 min)  49.5 %
Property integrals               ...       10.014 sec (=   0.167 min)   6.4 %
SCF Response                     ...        4.472 sec (=   0.075 min)   2.9 %
Property calculations            ...       12.109 sec (=   0.202 min)   7.7 %
SCF Gradient evaluation          ...       33.736 sec (=   0.562 min)  21.6 %
Geometry relaxation              ...        0.088 sec (=   0.001 min)   0.1 %
                             ****ORCA TERMINATED NORMALLY****
TOTAL RUN TIME: 0 days 0 hours 2 minutes 42 seconds 500 msec
