
                                 *****************
                                 * O   R   C   A *
                                 *****************

                                            #,                                       
                                            ###                                      
                                            ####                                     
                                            #####                                    
                                            ######                                   
                                           ########,                                 
                                     ,,################,,,,,                         
                               ,,#################################,,                 
                          ,,##########################################,,             
                       ,#########################################, ''#####,          
                    ,#############################################,,   '####,        
                  ,##################################################,,,,####,       
                ,###########''''           ''''###############################       
              ,#####''   ,,,,##########,,,,          '''####'''          '####       
            ,##' ,,,,###########################,,,                        '##       
           ' ,,###''''                  '''############,,,                           
         ,,##''                                '''############,,,,        ,,,,,,###''
      ,#''                                            '''#######################'''  
     '                                                          ''''####''''         
             ,#######,   #######,   ,#######,      ##                                
            ,#'     '#,  ##    ##  ,#'     '#,    #''#        ######   ,####,        
            ##       ##  ##   ,#'  ##            #'  '#       #        #'  '#        
            ##       ##  #######   ##           ,######,      #####,   #    #        
            '#,     ,#'  ##    ##  '#,     ,#' ,#      #,         ##   #,  ,#        
             '#######'   ##     ##  '#######'  #'      '#     #####' # '####'        



                  #######################################################
                  #                        -***-                        #
                  #          Department of theory and spectroscopy      #
                  #    Directorship and core code : Frank Neese         #
                  #        Max Planck Institute fuer Kohlenforschung    #
                  #                Kaiser Wilhelm Platz 1               #
                  #                 D-45470 Muelheim/Ruhr               #
                  #                      Germany                        #
                  #                                                     #
                  #                  All rights reserved                #
                  #                        -***-                        #
                  #######################################################


                         Program Version 5.0.4 -  RELEASE  -


 With contributions from (in alphabetic order):
   Daniel Aravena         : Magnetic Suceptibility
   Michael Atanasov       : Ab Initio Ligand Field Theory (pilot matlab implementation)
   Alexander A. Auer      : GIAO ZORA, VPT2 properties, NMR spectrum
   Ute Becker             : Parallelization
   Giovanni Bistoni       : ED, misc. LED, open-shell LED, HFLD
   Martin Brehm           : Molecular dynamics
   Dmytro Bykov           : SCF Hessian
   Vijay G. Chilkuri      : MRCI spin determinant printing, contributions to CSF-ICE
   Dipayan Datta          : RHF DLPNO-CCSD density
   Achintya Kumar Dutta   : EOM-CC, STEOM-CC
   Dmitry Ganyushin       : Spin-Orbit,Spin-Spin,Magnetic field MRCI
   Miquel Garcia          : C-PCM and meta-GGA Hessian, CC/C-PCM, Gaussian charge scheme
   Yang Guo               : DLPNO-NEVPT2, F12-NEVPT2, CIM, IAO-localization
   Andreas Hansen         : Spin unrestricted coupled pair/coupled cluster methods
   Benjamin Helmich-Paris : MC-RPA, TRAH-SCF, COSX integrals
   Lee Huntington         : MR-EOM, pCC
   Robert Izsak           : Overlap fitted RIJCOSX, COSX-SCS-MP3, EOM
   Marcus Kettner         : VPT2
   Christian Kollmar      : KDIIS, OOCD, Brueckner-CCSD(T), CCSD density, CASPT2, CASPT2-K
   Simone Kossmann        : Meta GGA functionals, TD-DFT gradient, OOMP2, MP2 Hessian
   Martin Krupicka        : Initial AUTO-CI
   Lucas Lang             : DCDCAS
   Marvin Lechner         : AUTO-CI (C++ implementation), FIC-MRCC
   Dagmar Lenk            : GEPOL surface, SMD
   Dimitrios Liakos       : Extrapolation schemes; Compound Job, initial MDCI parallelization
   Dimitrios Manganas     : Further ROCIS development; embedding schemes
   Dimitrios Pantazis     : SARC Basis sets
   Anastasios Papadopoulos: AUTO-CI, single reference methods and gradients
   Taras Petrenko         : DFT Hessian,TD-DFT gradient, ASA, ECA, R-Raman, ABS, FL, XAS/XES, NRVS
   Peter Pinski           : DLPNO-MP2, DLPNO-MP2 Gradient
   Christoph Reimann      : Effective Core Potentials
   Marius Retegan         : Local ZFS, SOC
   Christoph Riplinger    : Optimizer, TS searches, QM/MM, DLPNO-CCSD(T), (RO)-DLPNO pert. Triples
   Tobias Risthaus        : Range-separated hybrids, TD-DFT gradient, RPA, STAB
   Michael Roemelt        : Original ROCIS implementation
   Masaaki Saitow         : Open-shell DLPNO-CCSD energy and density
   Barbara Sandhoefer     : DKH picture change effects
   Avijit Sen             : IP-ROCIS
   Kantharuban Sivalingam : CASSCF convergence, NEVPT2, FIC-MRCI
   Bernardo de Souza      : ESD, SOC TD-DFT
   Georgi Stoychev        : AutoAux, RI-MP2 NMR, DLPNO-MP2 response
   Willem Van den Heuvel  : Paramagnetic NMR
   Boris Wezisla          : Elementary symmetry handling
   Frank Wennmohs         : Technical directorship


 We gratefully acknowledge several colleagues who have allowed us to
 interface, adapt or use parts of their codes:
   Stefan Grimme, W. Hujo, H. Kruse, P. Pracht,  : VdW corrections, initial TS optimization,
                  C. Bannwarth, S. Ehlert          DFT functionals, gCP, sTDA/sTD-DF
   Ed Valeev, F. Pavosevic, A. Kumar             : LibInt (2-el integral package), F12 methods
   Garnet Chan, S. Sharma, J. Yang, R. Olivares  : DMRG
   Ulf Ekstrom                                   : XCFun DFT Library
   Mihaly Kallay                                 : mrcc  (arbitrary order and MRCC methods)
   Jiri Pittner, Ondrej Demel                    : Mk-CCSD
   Frank Weinhold                                : gennbo (NPA and NBO analysis)
   Christopher J. Cramer and Donald G. Truhlar   : smd solvation model
   Lars Goerigk                                  : TD-DFT with DH, B97 family of functionals
   V. Asgeirsson, H. Jonsson                     : NEB implementation
   FAccTs GmbH                                   : IRC, NEB, NEB-TS, DLPNO-Multilevel, CI-OPT
                                                   MM, QMMM, 2- and 3-layer-ONIOM, Crystal-QMMM,
                                                   LR-CPCM, SF, NACMEs, symmetry and pop. for TD-DFT,
                                                   nearIR, NL-DFT gradient (VV10), updates on ESD,
                                                   ML-optimized integration grids
   S Lehtola, MJT Oliveira, MAL Marques          : LibXC Library
   Liviu Ungur et al                             : ANISO software


 Your calculation uses the libint2 library for the computation of 2-el integrals
 For citations please refer to: http://libint.valeyev.net

 Your ORCA version has been built with support for libXC version: 5.1.0
 For citations please refer to: https://tddft.org/programs/libxc/

 This ORCA versions uses:
   CBLAS   interface :  Fast vector & matrix operations
   LAPACKE interface :  Fast linear algebra routines
   SCALAPACK package :  Parallel linear algebra routines
   Shared memory     :  Shared parallel matrices
   BLAS/LAPACK       :  OpenBLAS 0.3.15  USE64BITINT DYNAMIC_ARCH NO_AFFINITY SkylakeX SINGLE_THREADED
        Core in use  :  SkylakeX
   Copyright (c) 2011-2014, The OpenBLAS Project


Your calculation utilizes the atom-pairwise dispersion correction
with the zero-damping scheme (D30)
Cite in your paper:
S.Grimme, J.Antony, S.Ehrlich and H.Krieg, J.Chem.Phys., 132, (2010), 154104 
   

XCFun DFT library Copyright 2009-2010 Ulf Ekstrom and contributors.
See http://admol.org/xcfun for more information.
This is free software; see the source code for copying conditions.
There is ABSOLUTELY NO WARRANTY; not even for MERCHANTABILITY or FITNESS FOR A PARTICULAR PURPOSE.
For details see the documentation.
Scientific users of this library should cite U. Ekstrom, L. Visscher, R. Bast, A. J. Thorvaldsen and K. Ruud;
J.Chem.Theor.Comp. 2010, DOI: 10.1021/ct100117s
XCFun Version 0.99 

================================================================================

----- Orbital basis set information -----
Your calculation utilizes the basis: def2-SVP
   F. Weigend and R. Ahlrichs, Phys. Chem. Chem. Phys. 7, 3297 (2005).

----- AuxJ basis set information -----
Your calculation utilizes the auxiliary basis: def2/J
   F. Weigend, Phys. Chem. Chem. Phys. 8, 1057 (2006).

================================================================================
                                        WARNINGS
                       Please study these warnings very carefully!
================================================================================


WARNING: Geometry Optimization
  ===> : Switching off AutoStart
         For restart on a previous wavefunction, please use MOREAD

INFO   : the flag for use of the SHARK integral package has been found!

================================================================================
                                       INPUT FILE
================================================================================
NAME = claisen_ts.inp
|  1> ! wB97X-D3 def2-SVP OptTS Freq
|  2> 
|  3> *xyz 0 1
|  4>  C                 -1.46630900    0.78416700   -0.28998400
|  5>  C                 -1.29105700   -0.47205600    0.26183900
|  6>  O                 -0.51102600   -1.35845600   -0.25222100
|  7>  C                  1.28557000   -0.90028400    0.18203400
|  8>  C                  1.37470200    0.41270400   -0.30179600
|  9>  C                  0.66867800    1.42529500    0.32223600
| 10>  H                 -2.14589700    1.49239700    0.17879400
| 11>  H                 -1.22540000    0.95368900   -1.33299400
| 12>  H                 -1.67666300   -0.64615200    1.28181200
| 13>  H                  1.76639500   -1.71190500   -0.35332000
| 14>  H                  1.17354000   -1.06949500    1.24881600
| 15>  H                  1.69249600    0.55703400   -1.33267500
| 16>  H                  0.62902600    2.42494500   -0.10169800
| 17>  H                  0.44520400    1.36817500    1.38305600
| 18> *
| 19> 
| 20>                          ****END OF INPUT****
================================================================================

                       *****************************
                       * Geometry Optimization Run *
                       *****************************

Geometry optimization settings:
Update method            Update   .... Bofill
Choice of coordinates    CoordSys .... Z-matrix Internals
Initial Hessian          InHess   .... Almoef's Model

Convergence Tolerances:
Energy Change            TolE     ....  5.0000e-06 Eh
Max. Gradient            TolMAXG  ....  3.0000e-04 Eh/bohr
RMS Gradient             TolRMSG  ....  1.0000e-04 Eh/bohr
Max. Displacement        TolMAXD  ....  4.0000e-03 bohr
RMS Displacement         TolRMSD  ....  2.0000e-03 bohr
Strict Convergence                ....  False
------------------------------------------------------------------------------
                        ORCA OPTIMIZATION COORDINATE SETUP
------------------------------------------------------------------------------

The optimization will be done in new redundant internal coordinates
Making redundant internal coordinates   ...  (new redundants) done
Following TS mode number                ...     0
Evaluating the initial hessian          ...  (Almloef) done
Evaluating the coordinates              ...  done
Calculating the B-matrix                .... done
Calculating the G-matrix                .... done
Diagonalizing the G-matrix              .... done
Small eigenvalue found = 1.248e-02
Small eigenvalue found = 2.897e-02
The first mode is                       ....   15
The number of degrees of freedom        ....   36

    -----------------------------------------------------------------
                    Redundant Internal Coordinates


    -----------------------------------------------------------------
         Definition                    Initial Value    Approx d2E/dq
    -----------------------------------------------------------------
      1. B(C   1,C   0)                  1.3832         0.640536   
      2. B(O   2,C   1)                  1.2878         0.814592   
      3. B(C   3,O   2)                  1.9043         0.084603   
      4. B(C   4,C   3)                  1.4021         0.597562   
      5. B(C   5,C   4)                  1.3832         0.640614   
      6. B(H   6,C   0)                  1.0877         0.363100   
      7. B(H   7,C   0)                  1.0838         0.368382   
      8. B(H   8,C   1)                  1.1042         0.341746   
      9. B(H   9,C   3)                  1.0847         0.367210   
     10. B(H  10,C   3)                  1.0859         0.365547   
     11. B(H  11,C   4)                  1.0884         0.362271   
     12. B(H  12,C   5)                  1.0866         0.364692   
     13. B(H  13,C   5)                  1.0856         0.365959   
     14. A(H   6,C   0,H   7)          116.8575         0.292262   
     15. A(C   1,C   0,H   6)          119.9039         0.355362   
     16. A(C   1,C   0,H   7)          119.8552         0.356234   
     17. A(C   0,C   1,H   8)          117.8680         0.351733   
     18. A(C   0,C   1,O   2)          122.8611         0.455732   
     19. A(O   2,C   1,H   8)          118.1456         0.364141   
     20. A(C   1,O   2,C   3)          108.3501         0.319024   
     21. A(O   2,C   3,C   4)          101.9226         0.305226   
     22. A(C   4,C   3,H  10)          119.4368         0.351607   
     23. A(O   2,C   3,H  10)           95.1176         0.256324   
     24. A(C   4,C   3,H   9)          120.1454         0.351877   
     25. A(O   2,C   3,H   9)           97.2175         0.256496   
     26. A(H   9,C   3,H  10)          114.4564         0.292425   
     27. A(C   3,C   4,H  11)          118.0073         0.351073   
     28. A(C   5,C   4,H  11)          118.6387         0.355232   
     29. A(C   3,C   4,C   5)          119.8280         0.433742   
     30. A(H  12,C   5,H  13)          114.9705         0.292160   
     31. A(C   4,C   5,H  13)          120.4912         0.355843   
     32. A(C   4,C   5,H  12)          121.0724         0.355634   
     33. D(H   8,C   1,C   0,H   6)    -13.0179         0.028509   
     34. D(H   8,C   1,C   0,H   7)   -171.6118         0.028509   
     35. D(O   2,C   1,C   0,H   7)     20.7528         0.028509   
     36. D(O   2,C   1,C   0,H   6)    179.3467         0.028509   
     37. D(C   3,O   2,C   1,H   8)    -90.5645         0.051365   
     38. D(C   3,O   2,C   1,C   0)     77.0385         0.051365   
     39. D(H  10,C   3,O   2,C   1)     66.5992         0.001918   
     40. D(H   9,C   3,O   2,C   1)   -177.9130         0.001918   
     41. D(C   4,C   3,O   2,C   1)    -54.9493         0.001918   
     42. D(H  11,C   4,C   3,H   9)     16.1031         0.026728   
     43. D(H  11,C   4,C   3,O   2)    -89.6272         0.026728   
     44. D(C   5,C   4,C   3,H  10)    -34.0154         0.026728   
     45. D(C   5,C   4,C   3,H   9)    174.6492         0.026728   
     46. D(H  11,C   4,C   3,H  10)    167.4385         0.026728   
     47. D(C   5,C   4,C   3,O   2)     68.9189         0.026728   
     48. D(H  13,C   5,C   4,H  11)   -172.2901         0.028517   
     49. D(H  13,C   5,C   4,C   3)     29.2979         0.028517   
     50. D(H  12,C   5,C   4,H  11)    -14.3496         0.028517   
     51. D(H  12,C   5,C   4,C   3)   -172.7616         0.028517   
    -----------------------------------------------------------------

Number of atoms                         .... 14
Number of degrees of freedom            .... 51

         *************************************************************
         *                GEOMETRY OPTIMIZATION CYCLE   1            *
         *************************************************************
---------------------------------
CARTESIAN COORDINATES (ANGSTROEM)
---------------------------------
  C     -1.466309    0.784167   -0.289984
  C     -1.291057   -0.472056    0.261839
  O     -0.511026   -1.358456   -0.252221
  C      1.285570   -0.900284    0.182034
  C      1.374702    0.412704   -0.301796
  C      0.668678    1.425295    0.322236
  H     -2.145897    1.492397    0.178794
  H     -1.225400    0.953689   -1.332994
  H     -1.676663   -0.646152    1.281812
  H      1.766395   -1.711905   -0.353320
  H      1.173540   -1.069495    1.248816
  H      1.692496    0.557034   -1.332675
  H      0.629026    2.424945   -0.101698
  H      0.445204    1.368175    1.383056

----------------------------
CARTESIAN COORDINATES (A.U.)
----------------------------
  NO LB      ZA    FRAG     MASS         X           Y           Z
   0 C     6.0000    0    12.011   -2.770922    1.481861   -0.547990
   1 C     6.0000    0    12.011   -2.439744   -0.892057    0.494804
   2 O     8.0000    0    15.999   -0.965699   -2.567110   -0.476629
   3 C     6.0000    0    12.011    2.429375   -1.701290    0.343994
   4 C     6.0000    0    12.011    2.597810    0.779898   -0.570312
   5 C     6.0000    0    12.011    1.263618    2.693417    0.608938
   6 H     1.0000    0     1.008   -4.055158    2.820222    0.337872
   7 H     1.0000    0     1.008   -2.315670    1.802211   -2.518994
   8 H     1.0000    0     1.008   -3.168434   -1.221050    2.422274
   9 H     1.0000    0     1.008    3.338003   -3.235032   -0.667678
  10 H     1.0000    0     1.008    2.217669   -2.021053    2.359920
  11 H     1.0000    0     1.008    3.198354    1.052642   -2.518391
  12 H     1.0000    0     1.008    1.188687    4.582482   -0.192181
  13 H     1.0000    0     1.008    0.841314    2.585476    2.613597

--------------------------------
INTERNAL COORDINATES (ANGSTROEM)
--------------------------------
 C      0   0   0     0.000000000000     0.00000000     0.00000000
 C      1   0   0     1.383227426189     0.00000000     0.00000000
 O      2   1   0     1.287793075211   122.86114288     0.00000000
 C      3   2   1     1.904273135300   108.35013554    77.03845335
 C      4   3   2     1.402131759311   101.92256988   305.05074026
 C      5   4   3     1.383194259271   119.82804172    68.91892798
 H      1   2   3     1.087741879275   119.90393718   179.34672554
 H      1   2   3     1.083810276231   119.85520129    20.75282229
 H      2   1   3     1.104240157385   117.86802625   167.63541248
 H      4   3   2     1.084677479061    97.21754581   182.08700132
 H      4   3   2     1.085912942618    95.11760175    66.59915903
 H      5   4   3     1.088363766384   118.00731213   270.37279459
 H      6   5   4     1.086550707496   121.07240035   187.23844877
 H      6   5   4     1.085606924939   120.49123912    29.29791554

---------------------------
INTERNAL COORDINATES (A.U.)
---------------------------
 C      0   0   0     0.000000000000     0.00000000     0.00000000
 C      1   0   0     2.613921016426     0.00000000     0.00000000
 O      2   1   0     2.433576229309   122.86114288     0.00000000
 C      3   2   1     3.598554709900   108.35013554    77.03845335
 C      4   3   2     2.649645028771   101.92256988   305.05074026
 C      5   4   3     2.613858340035   119.82804172    68.91892798
 H      1   2   3     2.055534256226   119.90393718   179.34672554
 H      1   2   3     2.048104603207   119.85520129    20.75282229
 H      2   1   3     2.086711483535   117.86802625   167.63541248
 H      4   3   2     2.049743379057    97.21754581   182.08700132
 H      4   3   2     2.052078066828    95.11760175    66.59915903
 H      5   4   3     2.056709452548   118.00731213   270.37279459
 H      6   5   4     2.053283267786   121.07240035   187.23844877
 H      6   5   4     2.051499777224   120.49123912    29.29791554

---------------------
BASIS SET INFORMATION
---------------------
There are 3 groups of distinct atoms

 Group   1 Type C   : 7s4p1d contracted to 3s2p1d pattern {511/31/1}
 Group   2 Type O   : 7s4p1d contracted to 3s2p1d pattern {511/31/1}
 Group   3 Type H   : 4s1p contracted to 2s1p pattern {31/1}

Atom   0C    basis set group =>   1
Atom   1C    basis set group =>   1
Atom   2O    basis set group =>   2
Atom   3C    basis set group =>   1
Atom   4C    basis set group =>   1
Atom   5C    basis set group =>   1
Atom   6H    basis set group =>   3
Atom   7H    basis set group =>   3
Atom   8H    basis set group =>   3
Atom   9H    basis set group =>   3
Atom  10H    basis set group =>   3
Atom  11H    basis set group =>   3
Atom  12H    basis set group =>   3
Atom  13H    basis set group =>   3
---------------------------------
AUXILIARY/J BASIS SET INFORMATION
---------------------------------
There are 3 groups of distinct atoms

 Group   1 Type C   : 12s5p4d2f1g contracted to 6s4p3d1f1g pattern {711111/2111/211/2/1}
 Group   2 Type O   : 12s5p4d2f1g contracted to 6s4p3d1f1g pattern {711111/2111/211/2/1}
 Group   3 Type H   : 5s2p1d contracted to 3s1p1d pattern {311/2/1}

Atom   0C    basis set group =>   1
Atom   1C    basis set group =>   1
Atom   2O    basis set group =>   2
Atom   3C    basis set group =>   1
Atom   4C    basis set group =>   1
Atom   5C    basis set group =>   1
Atom   6H    basis set group =>   3
Atom   7H    basis set group =>   3
Atom   8H    basis set group =>   3
Atom   9H    basis set group =>   3
Atom  10H    basis set group =>   3
Atom  11H    basis set group =>   3
Atom  12H    basis set group =>   3
Atom  13H    basis set group =>   3
------------------------------------------------------------------------------
                           ORCA GTO INTEGRAL CALCULATION
                           -- RI-GTO INTEGRALS CHOSEN --
------------------------------------------------------------------------------
------------------------------------------------------------------------------
                   ___                                                        
                  /   \      - P O W E R E D   B Y -                         
                 /     \                                                     
                 |  |  |   _    _      __       _____    __    __             
                 |  |  |  | |  | |    /  \     |  _  \  |  |  /  |          
                  \  \/   | |  | |   /    \    | | | |  |  | /  /          
                 / \  \   | |__| |  /  /\  \   | |_| |  |  |/  /          
                |  |  |   |  __  | /  /__\  \  |    /   |      \           
                |  |  |   | |  | | |   __   |  |    \   |  |\   \          
                \     /   | |  | | |  |  |  |  | |\  \  |  | \   \       
                 \___/    |_|  |_| |__|  |__|  |_| \__\ |__|  \__/        
                                                                              
                      - O R C A' S   B I G   F R I E N D -                    
                                      &                                       
                       - I N T E G R A L  F E E D E R -                       
                                                                              
 v1 FN, 2020, v2 2021                                                         
------------------------------------------------------------------------------


Reading SHARK input file claisen_ts.SHARKINP.tmp ... ok
----------------------
SHARK INTEGRAL PACKAGE
----------------------

Number of atoms                             ...     14
Number of basis functions                   ...    124
Number of shells                            ...     60
Maximum angular momentum                    ...      2
Integral batch strategy                     ... SHARK/LIBINT Hybrid
RI-J (if used) integral strategy            ... SPLIT-RIJ (Revised 2003 algorithm where possible)
Printlevel                                  ...      1
Contraction scheme used                     ... SEGMENTED contraction
Coulomb Range Separation                    ... NOT USED
Exchange Range Separation                   ... Long Range
   Mu parameter                             ...  0.250000
   Scaling (regular/separated)              ...  0.195728  0.804272
Finite Nucleus Model                        ... NOT USED
Auxiliary Coulomb fitting basis             ... AVAILABLE
   # of basis functions in Aux-J            ...    382
   # of shells in Aux-J                     ...    130
   Maximum angular momentum in Aux-J        ...      4
Auxiliary J/K fitting basis                 ... NOT available
Auxiliary Correlation fitting basis         ... NOT available
Auxiliary 'external' fitting basis          ... NOT available
Integral threshold                          ...     2.500000e-11
Primitive cut-off                           ...     2.500000e-12
Primitive pair pre-selection threshold      ...     2.500000e-12

Calculating pre-screening integrals         ... done (  0.0 sec) Dimension = 60
Organizing shell pair data                  ... done (  0.0 sec)
Shell pair information
Total number of shell pairs                 ...      1830
Shell pairs after pre-screening             ...      1806
Total number of primitive shell pairs       ...      6430
Primitive shell pairs kept                  ...      4980
          la=0 lb=0:    584 shell pairs
          la=1 lb=0:    669 shell pairs
          la=1 lb=1:    209 shell pairs
          la=2 lb=0:    203 shell pairs
          la=2 lb=1:    120 shell pairs
          la=2 lb=2:     21 shell pairs

Calculating one electron integrals          ... done (  0.0 sec)
Calculating RI/J V-Matrix + Cholesky decomp.... done (  0.0 sec)
Calculating Nuclear repulsion               ... done (  0.0 sec) ENN=    229.715198749943 Eh

SHARK setup successfully completed in   0.1 seconds

Maximum memory used throughout the entire GTOINT-calculation: 15.0 MB
-------------------------------------------------------------------------------
                                 ORCA SCF
-------------------------------------------------------------------------------

------------
SCF SETTINGS
------------
Hamiltonian:
 Density Functional     Method          .... DFT(GTOs)
 Exchange Functional    Exchange        .... WB97X-D3
 Correlation Functional Correlation     .... WB97X-D3
 Gradients option       PostSCFGGA      .... off
 Hybrid DFT is turned on
   Fraction HF Exchange ScalHFX         ....  0.195728
   Scaling of DF-GGA-X  ScalDFX         ....  0.000000
   Scaling of DF-GGA-C  ScalDFC         ....  1.000000
   Scaling of DF-LDA-C  ScalLDAC        ....  1.000000
   Perturbative correction              ....  0.000000
   Density functional embedding theory  .... OFF
 Long-range corrected/Screened/Range-Separated Hybrid DFT is turned on
   Amount of maximum screened exact exchange              ....  0.804272
   Range separation parameter mu (erf(mu*r12)/r12)        ....  0.250000
 RI-approximation to the Coulomb term is turned on
   Number of AuxJ basis functions       .... 382
   RIJ-COSX (HFX calculated with COS-X)).... on


General Settings:
 Integral files         IntName         .... claisen_ts
 Hartree-Fock type      HFTyp           .... RHF
 Total Charge           Charge          ....    0
 Multiplicity           Mult            ....    1
 Number of Electrons    NEL             ....   46
 Basis Dimension        Dim             ....  124
 Nuclear Repulsion      ENuc            ....    229.7151987499 Eh

Convergence Acceleration:
 DIIS                   CNVDIIS         .... on
   Start iteration      DIISMaxIt       ....    12
   Startup error        DIISStart       ....  0.200000
   # of expansion vecs  DIISMaxEq       ....     5
   Bias factor          DIISBfac        ....   1.050
   Max. coefficient     DIISMaxC        ....  10.000
 Trust-Rad. Augm. Hess. CNVTRAH         .... auto
   Auto Start mean grad. ratio tolernc. ....  1.125000
   Auto Start start iteration           ....    20
   Auto Start num. interpolation iter.  ....    10
   Max. Number of Micro iterations      ....    16
   Max. Number of Macro iterations      .... Maxiter - #DIIS iter
   Number of Davidson start vectors     ....     2
   Converg. threshold I  (grad. norm)   ....   1.000e-05
   Converg. threshold II (energy diff.) ....   1.000e-08
   Grad. Scal. Fac. for Micro threshold ....   0.100
   Minimum threshold for Micro iter.    ....   0.010
   NR start threshold (gradient norm)   ....   0.001
   Initial trust radius                 ....   0.400
   Minimum AH scaling param. (alpha)    ....   1.000
   Maximum AH scaling param. (alpha)    .... 1000.000
   Orbital update algorithm             .... Taylor
   White noise on init. David. guess    .... on
   Maximum white noise                  ....   0.010
   Quad. conv. algorithm                .... NR
 SOSCF                  CNVSOSCF        .... on
   Start iteration      SOSCFMaxIt      ....   150
   Startup grad/error   SOSCFStart      ....  0.003300
 Level Shifting         CNVShift        .... on
   Level shift para.    LevelShift      ....    0.2500
   Turn off err/grad.   ShiftErr        ....    0.0010
 Zerner damping         CNVZerner       .... off
 Static damping         CNVDamp         .... on
   Fraction old density DampFac         ....    0.7000
   Max. Damping (<1)    DampMax         ....    0.9800
   Min. Damping (>=0)   DampMin         ....    0.0000
   Turn off err/grad.   DampErr         ....    0.1000
 Fernandez-Rico         CNVRico         .... off

SCF Procedure:
 Maximum # iterations   MaxIter         ....   125
 SCF integral mode      SCFMode         .... Direct
   Integral package                     .... SHARK and LIBINT hybrid scheme
 Reset frequency        DirectResetFreq ....    20
 Integral Threshold     Thresh          ....  2.500e-11 Eh
 Primitive CutOff       TCut            ....  2.500e-12 Eh

Convergence Tolerance:
 Convergence Check Mode ConvCheckMode   .... Total+1el-Energy
 Convergence forced     ConvForced      .... 0
 Energy Change          TolE            ....  1.000e-08 Eh
 1-El. energy change                    ....  1.000e-05 Eh
 Orbital Gradient       TolG            ....  1.000e-05
 Orbital Rotation angle TolX            ....  1.000e-05
 DIIS Error             TolErr          ....  5.000e-07


Diagonalization of the overlap matrix:
Smallest eigenvalue                        ... 1.930e-03
Time for diagonalization                   ...    0.004 sec
Threshold for overlap eigenvalues          ... 1.000e-08
Number of eigenvalues below threshold      ... 0
Time for construction of square roots      ...    0.001 sec
Total time needed                          ...    0.005 sec

Time for model grid setup =    0.107 sec

------------------------------
INITIAL GUESS: MODEL POTENTIAL
------------------------------
Loading Hartree-Fock densities                     ... done
Calculating cut-offs                               ... done
Initializing the effective Hamiltonian             ... done
Setting up the integral package (SHARK)            ... done
Starting the Coulomb interaction                   ... done (   0.1 sec)
Reading the grid                                   ... done
Mapping shells                                     ... done
Starting the XC term evaluation                    ... done (   0.1 sec)
  promolecular density results
     # of electrons  =     45.997317426
     EX              =    -35.981211294
     EC              =     -1.488908355
     EX+EC           =    -37.470119649
Transforming the Hamiltonian                       ... done (   0.0 sec)
Diagonalizing the Hamiltonian                      ... done (   0.0 sec)
Back transforming the eigenvectors                 ... done (   0.0 sec)
Now organizing SCF variables                       ... done
                      ------------------
                      INITIAL GUESS DONE (   0.3 sec)
                      ------------------
-------------------
DFT GRID GENERATION
-------------------

General Integration Accuracy     IntAcc      ... 4.388
Radial Grid Type                 RadialGrid  ... OptM3 with GC (2021)
Angular Grid (max. ang.)         AngularGrid ... 4 (Lebedev-302)
Angular grid pruning method      GridPruning ... 4 (adaptive)
Weight generation scheme         WeightScheme... Becke
Basis function cutoff            BFCut       ... 1.0000e-11
Integration weight cutoff        WCut        ... 1.0000e-14
Angular grids for H and He will be reduced by one unit
Partially contracted basis set               ... off
Rotationally invariant grid construction     ... off

Total number of grid points                  ...    62020
Total number of batches                      ...      976
Average number of points per batch           ...       63
Average number of grid points per atom       ...     4430
Time for grid setup =    0.435 sec

--------------------
COSX GRID GENERATION
--------------------

GRIDX 1
-------
General Integration Accuracy     IntAcc      ... 3.816
Radial Grid Type                 RadialGrid  ... OptM3 with GC (2021)
Angular Grid (max. ang.)         AngularGrid ... 1 (Lebedev-50)
Angular grid pruning method      GridPruning ... 4 (adaptive)
Weight generation scheme         WeightScheme... Becke
Basis function cutoff            BFCut       ... 1.0000e-11
Integration weight cutoff        WCut        ... 1.0000e-14
Angular grids for H and He will be reduced by one unit
Partially contracted basis set               ... on
Rotationally invariant grid construction     ... off

Total number of grid points                  ...     7963
Total number of batches                      ...      132
Average number of points per batch           ...       60
Average number of grid points per atom       ...      569
UseSFitting                                  ... on

GRIDX 2
-------
General Integration Accuracy     IntAcc      ... 4.020
Radial Grid Type                 RadialGrid  ... OptM3 with GC (2021)
Angular Grid (max. ang.)         AngularGrid ... 2 (Lebedev-110)
Angular grid pruning method      GridPruning ... 4 (adaptive)
Weight generation scheme         WeightScheme... Becke
Basis function cutoff            BFCut       ... 1.0000e-11
Integration weight cutoff        WCut        ... 1.0000e-14
Angular grids for H and He will be reduced by one unit
Partially contracted basis set               ... on
Rotationally invariant grid construction     ... off

Total number of grid points                  ...    16980
Total number of batches                      ...      272
Average number of points per batch           ...       62
Average number of grid points per atom       ...     1213
UseSFitting                                  ... on

GRIDX 3
-------
General Integration Accuracy     IntAcc      ... 4.338
Radial Grid Type                 RadialGrid  ... OptM3 with GC (2021)
Angular Grid (max. ang.)         AngularGrid ... 3 (Lebedev-194)
Angular grid pruning method      GridPruning ... 4 (adaptive)
Weight generation scheme         WeightScheme... Becke
Basis function cutoff            BFCut       ... 1.0000e-11
Integration weight cutoff        WCut        ... 1.0000e-14
Angular grids for H and He will be reduced by one unit
Partially contracted basis set               ... on
Rotationally invariant grid construction     ... off

Total number of grid points                  ...    37167
Total number of batches                      ...      588
Average number of points per batch           ...       63
Average number of grid points per atom       ...     2655
UseSFitting                                  ... on

Time for X-Grid setup             =    0.500 sec

--------------
SCF ITERATIONS
--------------
ITER       Energy         Delta-E        Max-DP      RMS-DP      [F,P]     Damp
               ***  Starting incremental Fock matrix formation  ***
  0   -270.0439925311   0.000000000000 0.05486782  0.00200215  0.1765417 0.7000
  1   -270.0950071124  -0.051014581278 0.03798572  0.00145427  0.0864424 0.7000
                               ***Turning on DIIS***
  2   -270.1214284155  -0.026421303082 0.06945199  0.00277383  0.0427364 0.0000
  3   -270.1657081769  -0.044279761409 0.02723790  0.00103661  0.0430632 0.0000
  4   -270.1714765839  -0.005768407036 0.00666269  0.00022303  0.0068533 0.0000
  5   -270.1716489576  -0.000172373698 0.00282791  0.00009122  0.0051333 0.0000
                      *** Initiating the SOSCF procedure ***
                           *** Shutting down DIIS ***
                      *** Re-Reading the Fockian *** 
                      *** Removing any level shift *** 
ITER      Energy       Delta-E        Grad      Rot      Max-DP    RMS-DP
  6   -270.17168703  -0.0000380709  0.000302  0.000302  0.001486  0.000055
               *** Restarting incremental Fock matrix formation ***
  7   -270.17169520  -0.0000081719  0.000193  0.000489  0.000362  0.000020
  8   -270.17169581  -0.0000006049  0.000120  0.000381  0.000250  0.000012
  9   -270.17169621  -0.0000004034  0.000038  0.000134  0.000112  0.000005
 10   -270.17169623  -0.0000000197  0.000024  0.000032  0.000052  0.000002
 11   -270.17169625  -0.0000000205  0.000004  0.000014  0.000016  0.000001
                  ***Gradient check signals convergence***
              ***Rediagonalizing the Fockian in SOSCF/NRSCF***

               *****************************************************
               *                     SUCCESS                       *
               *           SCF CONVERGED AFTER  12 CYCLES          *
               *****************************************************

Old exchange energy                            =    -12.108733475 Eh
New exchange energy                            =    -12.108740484 Eh
Exchange energy change after final integration =     -0.000007009 Eh
Total energy after final integration           =   -270.171703257 Eh
Final COS-X integration done in                =     7.690 sec

----------------
TOTAL SCF ENERGY
----------------

Total Energy       :         -270.17170326 Eh           -7351.74580 eV

Components:
Nuclear Repulsion  :          229.71519875 Eh            6250.86835 eV
Electronic Energy  :         -499.88690201 Eh          -13602.61415 eV
One Electron Energy:         -820.14519098 Eh          -22317.28524 eV
Two Electron Energy:          320.25828897 Eh            8714.67109 eV
Max COSX asymmetry :            0.00000178 Eh               0.00005 eV

Virial components:
Potential Energy   :         -537.40829710 Eh          -14623.62321 eV
Kinetic Energy     :          267.23659384 Eh            7271.87741 eV
Virial Ratio       :            2.01098319


DFT components:
N(Alpha)           :       23.000024378869 electrons
N(Beta)            :       23.000024378869 electrons
N(Total)           :       46.000048757737 electrons
E(XC)              :      -26.346705224051 Eh       
DFET-embed. en.    :        0.000000000000 Eh       

---------------
SCF CONVERGENCE
---------------

  Last Energy change         ...    8.8380e-10  Tolerance :   1.0000e-08
  Last MAX-Density change    ...    4.4409e-15  Tolerance :   1.0000e-07
  Last RMS-Density change    ...    5.7337e-17  Tolerance :   5.0000e-09
  Last Orbital Gradient      ...    2.2742e-06  Tolerance :   1.0000e-05
  Last Orbital Rotation      ...    8.1850e-06  Tolerance :   1.0000e-05

             **** THE GBW FILE WAS UPDATED (claisen_ts.gbw) ****
             **** DENSITY claisen_ts.scfp WAS UPDATED ****
             **** ENERGY FILE WAS UPDATED (claisen_ts.en.tmp) ****
             **** THE GBW FILE WAS UPDATED (claisen_ts.gbw) ****
             **** DENSITY claisen_ts.scfp WAS UPDATED ****
----------------
ORBITAL ENERGIES
----------------

  NO   OCC          E(Eh)            E(eV) 
   0   2.0000     -19.228078      -523.2226 
   1   2.0000     -10.336480      -281.2699 
   2   2.0000     -10.336263      -281.2640 
   3   2.0000     -10.324695      -280.9492 
   4   2.0000     -10.293077      -280.0889 
   5   2.0000     -10.290048      -280.0064 
   6   2.0000      -1.111414       -30.2431 
   7   2.0000      -0.913760       -24.8647 
   8   2.0000      -0.844732       -22.9863 
   9   2.0000      -0.784169       -21.3383 
  10   2.0000      -0.674923       -18.3656 
  11   2.0000      -0.659616       -17.9491 
  12   2.0000      -0.593597       -16.1526 
  13   2.0000      -0.564828       -15.3698 
  14   2.0000      -0.547187       -14.8897 
  15   2.0000      -0.538100       -14.6424 
  16   2.0000      -0.502862       -13.6836 
  17   2.0000      -0.484772       -13.1913 
  18   2.0000      -0.469345       -12.7715 
  19   2.0000      -0.463876       -12.6227 
  20   2.0000      -0.367110        -9.9896 
  21   2.0000      -0.351665        -9.5693 
  22   2.0000      -0.313503        -8.5308 
  23   0.0000       0.039617         1.0780 
  24   0.0000       0.080169         2.1815 
  25   0.0000       0.155754         4.2383 
  26   0.0000       0.162904         4.4328 
  27   0.0000       0.172817         4.7026 
  28   0.0000       0.187487         5.1018 
  29   0.0000       0.203580         5.5397 
  30   0.0000       0.222943         6.0666 
  31   0.0000       0.231550         6.3008 
  32   0.0000       0.238964         6.5025 
  33   0.0000       0.262241         7.1360 
  34   0.0000       0.355426         9.6716 
  35   0.0000       0.357765         9.7353 
  36   0.0000       0.408254        11.1092 
  37   0.0000       0.419931        11.4269 
  38   0.0000       0.493354        13.4248 
  39   0.0000       0.499097        13.5811 
  40   0.0000       0.513488        13.9727 
  41   0.0000       0.548153        14.9160 
  42   0.0000       0.583030        15.8650 
  43   0.0000       0.598311        16.2809 
  44   0.0000       0.611457        16.6386 
  45   0.0000       0.646867        17.6022 
  46   0.0000       0.654246        17.8029 
  47   0.0000       0.688496        18.7349 
  48   0.0000       0.689880        18.7726 
  49   0.0000       0.730498        19.8778 
  50   0.0000       0.743001        20.2181 
  51   0.0000       0.751378        20.4460 
  52   0.0000       0.760699        20.6997 
  53   0.0000       0.764125        20.7929 
  54   0.0000       0.773067        21.0362 
  55   0.0000       0.785840        21.3838 
  56   0.0000       0.802082        21.8258 
  57   0.0000       0.826726        22.4964 
  58   0.0000       0.833452        22.6794 
  59   0.0000       0.859005        23.3747 
  60   0.0000       0.871503        23.7148 
  61   0.0000       0.954120        25.9629 
  62   0.0000       0.975072        26.5330 
  63   0.0000       1.067352        29.0441 
  64   0.0000       1.129096        30.7243 
  65   0.0000       1.150839        31.3159 
  66   0.0000       1.219840        33.1935 
  67   0.0000       1.252159        34.0730 
  68   0.0000       1.321657        35.9641 
  69   0.0000       1.338106        36.4117 
  70   0.0000       1.374654        37.4062 
  71   0.0000       1.392104        37.8811 
  72   0.0000       1.419632        38.6302 
  73   0.0000       1.439793        39.1788 
  74   0.0000       1.545546        42.0564 
  75   0.0000       1.560898        42.4742 
  76   0.0000       1.631747        44.4021 
  77   0.0000       1.694254        46.1030 
  78   0.0000       1.724868        46.9360 
  79   0.0000       1.742138        47.4060 
  80   0.0000       1.782747        48.5110 
  81   0.0000       1.803374        49.0723 
  82   0.0000       1.827047        49.7165 
  83   0.0000       1.840179        50.0738 
  84   0.0000       1.854142        50.4538 
  85   0.0000       1.870885        50.9094 
  86   0.0000       1.900396        51.7124 
  87   0.0000       1.914459        52.0951 
  88   0.0000       1.918088        52.1938 
  89   0.0000       1.967296        53.5328 
  90   0.0000       2.016863        54.8816 
  91   0.0000       2.035169        55.3798 
  92   0.0000       2.053708        55.8842 
  93   0.0000       2.089422        56.8561 
  94   0.0000       2.131369        57.9975 
  95   0.0000       2.167129        58.9706 
  96   0.0000       2.216385        60.3109 
  97   0.0000       2.232567        60.7512 
  98   0.0000       2.310784        62.8796 
  99   0.0000       2.311745        62.9058 
 100   0.0000       2.319050        63.1046 
 101   0.0000       2.334688        63.5301 
 102   0.0000       2.407290        65.5057 
 103   0.0000       2.442231        66.4565 
 104   0.0000       2.480495        67.4977 
 105   0.0000       2.549145        69.3658 
 106   0.0000       2.570787        69.9547 
 107   0.0000       2.576346        70.1059 
 108   0.0000       2.721135        74.0458 
 109   0.0000       2.727497        74.2190 
 110   0.0000       2.780229        75.6539 
 111   0.0000       2.846504        77.4573 
 112   0.0000       2.862117        77.8822 
 113   0.0000       2.895535        78.7915 
 114   0.0000       2.953814        80.3774 
 115   0.0000       2.969486        80.8038 
 116   0.0000       3.023739        82.2801 
 117   0.0000       3.043997        82.8314 
 118   0.0000       3.144211        85.5583 
 119   0.0000       3.203651        87.1758 
 120   0.0000       3.243997        88.2736 
 121   0.0000       3.416250        92.9609 
 122   0.0000       3.495869        95.1274 
 123   0.0000       3.672648        99.9378 

                    ********************************
                    * MULLIKEN POPULATION ANALYSIS *
                    ********************************

-----------------------
MULLIKEN ATOMIC CHARGES
-----------------------
   0 C :   -0.072937
   1 C :    0.099104
   2 O :   -0.355970
   3 C :    0.132357
   4 C :   -0.136694
   5 C :   -0.041858
   6 H :    0.046023
   7 H :    0.053728
   8 H :    0.005267
   9 H :    0.063781
  10 H :    0.052270
  11 H :    0.035673
  12 H :    0.061490
  13 H :    0.057765
Sum of atomic charges:   -0.0000000

--------------------------------
MULLIKEN REDUCED ORBITAL CHARGES
--------------------------------
  0 C s       :     3.104223  s :     3.104223
      pz      :     1.007817  p :     2.944339
      px      :     0.969723
      py      :     0.966799
      dz2     :     0.006608  d :     0.024376
      dxz     :     0.002421
      dyz     :     0.005931
      dx2y2   :     0.004354
      dxy     :     0.005062
  1 C s       :     3.126828  s :     3.126828
      pz      :     0.936731  p :     2.696164
      px      :     0.870637
      py      :     0.888796
      dz2     :     0.017145  d :     0.077904
      dxz     :     0.011800
      dyz     :     0.015356
      dx2y2   :     0.017013
      dxy     :     0.016589
  2 O s       :     3.800915  s :     3.800915
      pz      :     1.726324  p :     4.539918
      px      :     1.251318
      py      :     1.562276
      dz2     :     0.001947  d :     0.015137
      dxz     :     0.002207
      dyz     :     0.003349
      dx2y2   :     0.003569
      dxy     :     0.004066
  3 C s       :     3.089126  s :     3.089126
      pz      :     0.984213  p :     2.745226
      px      :     0.782872
      py      :     0.978141
      dz2     :     0.008878  d :     0.033291
      dxz     :     0.002226
      dyz     :     0.007379
      dx2y2   :     0.006335
      dxy     :     0.008472
  4 C s       :     3.131193  s :     3.131193
      pz      :     0.990824  p :     2.970971
      px      :     1.016917
      py      :     0.963229
      dz2     :     0.008872  d :     0.034530
      dxz     :     0.003020
      dyz     :     0.008655
      dx2y2   :     0.007228
      dxy     :     0.006754
  5 C s       :     3.136818  s :     3.136818
      pz      :     0.997195  p :     2.876550
      px      :     0.887442
      py      :     0.991913
      dz2     :     0.008716  d :     0.028490
      dxz     :     0.002541
      dyz     :     0.005802
      dx2y2   :     0.007550
      dxy     :     0.003881
  6 H s       :     0.930558  s :     0.930558
      pz      :     0.006042  p :     0.023418
      px      :     0.008885
      py      :     0.008492
  7 H s       :     0.922782  s :     0.922782
      pz      :     0.014432  p :     0.023490
      px      :     0.004947
      py      :     0.004111
  8 H s       :     0.974092  s :     0.974092
      pz      :     0.013207  p :     0.020640
      px      :     0.004482
      py      :     0.002952
  9 H s       :     0.913586  s :     0.913586
      pz      :     0.007019  p :     0.022634
      px      :     0.005233
      py      :     0.010382
 10 H s       :     0.924452  s :     0.924452
      pz      :     0.014928  p :     0.023279
      px      :     0.003898
      py      :     0.004453
 11 H s       :     0.941227  s :     0.941227
      pz      :     0.014061  p :     0.023100
      px      :     0.005683
      py      :     0.003356
 12 H s       :     0.915371  s :     0.915371
      pz      :     0.005877  p :     0.023139
      px      :     0.003915
      py      :     0.013347
 13 H s       :     0.918848  s :     0.918848
      pz      :     0.014633  p :     0.023387
      px      :     0.004757
      py      :     0.003997


                     *******************************
                     * LOEWDIN POPULATION ANALYSIS *
                     *******************************

----------------------
LOEWDIN ATOMIC CHARGES
----------------------
   0 C :   -0.079152
   1 C :    0.036323
   2 O :   -0.199001
   3 C :    0.108571
   4 C :   -0.109136
   5 C :    0.029702
   6 H :    0.027024
   7 H :    0.029889
   8 H :   -0.003425
   9 H :    0.036441
  10 H :    0.029944
  11 H :    0.029393
  12 H :    0.034410
  13 H :    0.029016

-------------------------------
LOEWDIN REDUCED ORBITAL CHARGES
-------------------------------
  0 C s       :     2.907025  s :     2.907025
      pz      :     1.060527  p :     3.107639
      px      :     0.990211
      py      :     1.056901
      dz2     :     0.017853  d :     0.064488
      dxz     :     0.005901
      dyz     :     0.016941
      dx2y2   :     0.011430
      dxy     :     0.012364
  1 C s       :     2.875130  s :     2.875130
      pz      :     1.006991  p :     2.906975
      px      :     0.900587
      py      :     0.999397
      dz2     :     0.040719  d :     0.181572
      dxz     :     0.027913
      dyz     :     0.036561
      dx2y2   :     0.038545
      dxy     :     0.037834
  2 O s       :     3.557608  s :     3.557608
      pz      :     1.738969  p :     4.615279
      px      :     1.279936
      py      :     1.596374
      dz2     :     0.003225  d :     0.026114
      dxz     :     0.004068
      dyz     :     0.005188
      dx2y2   :     0.005902
      dxy     :     0.007730
  3 C s       :     2.899955  s :     2.899955
      pz      :     1.053811  p :     2.911969
      px      :     0.795416
      py      :     1.062742
      dz2     :     0.022438  d :     0.079505
      dxz     :     0.004657
      dyz     :     0.019308
      dx2y2   :     0.015341
      dxy     :     0.017761
  4 C s       :     2.863902  s :     2.863902
      pz      :     1.054493  p :     3.154833
      px      :     1.043064
      py      :     1.057276
      dz2     :     0.023014  d :     0.090401
      dxz     :     0.007914
      dyz     :     0.024045
      dx2y2   :     0.018269
      dxy     :     0.017159
  5 C s       :     2.897475  s :     2.897475
      pz      :     1.052326  p :     3.002606
      px      :     0.902191
      py      :     1.048090
      dz2     :     0.022242  d :     0.070218
      dxz     :     0.006276
      dyz     :     0.015571
      dx2y2   :     0.016538
      dxy     :     0.009592
  6 H s       :     0.902420  s :     0.902420
      pz      :     0.018153  p :     0.070556
      px      :     0.027284
      py      :     0.025119
  7 H s       :     0.898525  s :     0.898525
      pz      :     0.042365  p :     0.071586
      px      :     0.016502
      py      :     0.012718
  8 H s       :     0.938233  s :     0.938233
      pz      :     0.039889  p :     0.065192
      px      :     0.015331
      py      :     0.009972
  9 H s       :     0.895505  s :     0.895505
      pz      :     0.020419  p :     0.068053
      px      :     0.017337
      py      :     0.030297
 10 H s       :     0.901040  s :     0.901040
      pz      :     0.044156  p :     0.069016
      px      :     0.012380
      py      :     0.012480
 11 H s       :     0.901854  s :     0.901854
      pz      :     0.039510  p :     0.068753
      px      :     0.017708
      py      :     0.011535
 12 H s       :     0.896695  s :     0.896695
      pz      :     0.017383  p :     0.068895
      px      :     0.012719
      py      :     0.038793
 13 H s       :     0.901271  s :     0.901271
      pz      :     0.042923  p :     0.069714
      px      :     0.014863
      py      :     0.011927


                      *****************************
                      * MAYER POPULATION ANALYSIS *
                      *****************************

  NA   - Mulliken gross atomic population
  ZA   - Total nuclear charge
  QA   - Mulliken gross atomic charge
  VA   - Mayer's total valence
  BVA  - Mayer's bonded valence
  FA   - Mayer's free valence

  ATOM       NA         ZA         QA         VA         BVA        FA
  0 C      6.0729     6.0000    -0.0729     3.8609     3.8609    -0.0000
  1 C      5.9009     6.0000     0.0991     4.1251     4.1251    -0.0000
  2 O      8.3560     8.0000    -0.3560     2.0965     2.0965    -0.0000
  3 C      5.8676     6.0000     0.1324     3.9387     3.9387     0.0000
  4 C      6.1367     6.0000    -0.1367     4.0406     4.0406    -0.0000
  5 C      6.0419     6.0000    -0.0419     3.9739     3.9739     0.0000
  6 H      0.9540     1.0000     0.0460     0.9809     0.9809    -0.0000
  7 H      0.9463     1.0000     0.0537     0.9956     0.9956    -0.0000
  8 H      0.9947     1.0000     0.0053     0.9812     0.9812    -0.0000
  9 H      0.9362     1.0000     0.0638     0.9848     0.9848     0.0000
 10 H      0.9477     1.0000     0.0523     0.9868     0.9868     0.0000
 11 H      0.9643     1.0000     0.0357     0.9888     0.9888     0.0000
 12 H      0.9385     1.0000     0.0615     0.9782     0.9782    -0.0000
 13 H      0.9422     1.0000     0.0578     0.9869     0.9869    -0.0000

  Mayer bond orders larger than 0.100000
B(  0-C ,  1-C ) :   1.5302 B(  0-C ,  5-C ) :   0.3613 B(  0-C ,  6-H ) :   0.9553 
B(  0-C ,  7-H ) :   0.9492 B(  1-C ,  2-O ) :   1.4783 B(  1-C ,  8-H ) :   0.9628 
B(  2-O ,  3-C ) :   0.4749 B(  3-C ,  4-C ) :   1.4153 B(  3-C ,  9-H ) :   0.9616 
B(  3-C , 10-H ) :   0.9619 B(  4-C ,  5-C ) :   1.5588 B(  4-C , 11-H ) :   0.9686 
B(  5-C , 12-H ) :   0.9603 B(  5-C , 13-H ) :   0.9642 

-------
TIMINGS
-------

Total SCF time: 0 days 0 hours 0 min 47 sec 

Total time                  ....      47.747 sec
Sum of individual times     ....      47.569 sec  ( 99.6%)

Fock matrix formation       ....      46.320 sec  ( 97.0%)
  Split-RI-J                ....       1.710 sec  (  3.7% of F)
  Chain of spheres X        ....      38.895 sec  ( 84.0% of F)
  XC integration            ....       5.792 sec  ( 12.5% of F)
    Basis function eval.    ....       2.316 sec  ( 40.0% of XC)
    Density eval.           ....       0.986 sec  ( 17.0% of XC)
    XC-Functional eval.     ....       1.086 sec  ( 18.7% of XC)
    XC-Potential eval.      ....       1.170 sec  ( 20.2% of XC)
Diagonalization             ....       0.011 sec  (  0.0%)
Density matrix formation    ....       0.002 sec  (  0.0%)
Population analysis         ....       0.003 sec  (  0.0%)
Initial guess               ....       0.184 sec  (  0.4%)
Orbital Transformation      ....       0.000 sec  (  0.0%)
Orbital Orthonormalization  ....       0.000 sec  (  0.0%)
DIIS solution               ....       0.003 sec  (  0.0%)
SOSCF solution              ....       0.006 sec  (  0.0%)
Grid generation             ....       1.041 sec  (  2.2%)

Maximum memory used throughout the entire SCF-calculation: 60.2 MB


-------------------------------------------------------------------------------
                          DFT DISPERSION CORRECTION                            
                                                                               
                              DFTD3 V3.1  Rev 1                                
                              USING zero damping                               
-------------------------------------------------------------------------------
The omegaB97X-D3 functional is recognized. Fit by Chai et al.
Active option DFTDOPT                   ...         3   

molecular C6(AA) [au] = 1790.995037 


            DFT-D V3
 parameters
 s6 scaling factor         :     1.0000 
 rs6 scaling factor        :     1.2810 
 s8 scaling factor         :     1.0000 
 rs8 scaling factor        :     1.0940 
 Damping factor alpha6     :    14.0000 
 Damping factor alpha8     :    16.0000 
 ad hoc parameters k1-k3   :    16.0000     1.3333    -4.0000 

 Edisp/kcal,au: -2.491316663901  -0.003970165394 
 E6   /kcal   :  -0.924477835 
 E8   /kcal   :  -1.566838828 
 % E8         :  62.891998080 

-------------------------   ----------------
Dispersion correction           -0.003970165
-------------------------   ----------------


-------------------------   --------------------
FINAL SINGLE POINT ENERGY      -270.175673422172
-------------------------   --------------------

------------------------------------------------------------------------------
                         ORCA SCF GRADIENT CALCULATION
------------------------------------------------------------------------------

 ... reading COSX grid (gridx3)
Gradient of the Kohn-Sham DFT energy:
Kohn-Sham wavefunction type      ... RKS
Hartree-Fock exchange scaling    ...    0.196
Number of operators              ...    1
Number of atoms                  ...   14
Basis set dimensions             ...  124
Integral neglect threshold       ... 2.5e-11
Integral primitive cutoff        ... 2.5e-12
SHARK Integral package           ... ON

Nuc. rep. gradient       (SHARK) ... done (  0.0 sec)
HCore & Overlap gradient (SHARK) ... done (  0.1 sec)
RI-J gradient            (SHARK) ... done (  0.5 sec)
COSX-gradient                    ... done (  8.6 sec)
Exchange-correlation gradient    ... done
Dispersion correction            ... done

------------------
CARTESIAN GRADIENT
------------------

   1   C   :   -0.003163617    0.006252594   -0.004046614
   2   C   :   -0.007830391    0.002152139    0.008245692
   3   O   :   -0.000126890   -0.009299272   -0.005577681
   4   C   :    0.008180893   -0.002862643    0.003309385
   5   C   :    0.003863314   -0.001339767   -0.004053638
   6   C   :   -0.001758973    0.007216686    0.003686538
   7   H   :    0.002852623   -0.002648029   -0.002361467
   8   H   :   -0.001573479   -0.000230834    0.005239142
   9   H   :    0.001810218    0.001001751   -0.003195794
  10   H   :   -0.002311487    0.003363843    0.002556889
  11   H   :    0.000469977    0.000499616   -0.005093039
  12   H   :   -0.001633953   -0.000740696    0.003991902
  13   H   :    0.000370964   -0.004129190    0.002558334
  14   H   :    0.000999473    0.000786552   -0.005173745

Difference to translation invariance:
           :    0.0001486718    0.0000227489    0.0000859047

Difference to rotation invariance:
           :    0.0013534496    0.0011648410   -0.0001629515

Norm of the cartesian gradient     ...    0.0262885055
RMS gradient                       ...    0.0040564045
MAX gradient                       ...    0.0092992724

-------
TIMINGS
-------

Total SCF gradient time            ...       11.587 sec

One electron gradient       ....       0.080 sec  (  0.7%)
RI-J Coulomb gradient       ....       0.459 sec  (  4.0%)
COSX gradient               ....       8.569 sec  ( 74.0%)
XC gradient                 ....       2.188 sec  ( 18.9%)

Maximum memory used throughout the entire SCFGRAD-calculation: 47.9 MB
------------------------------------------------------------------------------
                         ORCA GEOMETRY RELAXATION STEP
------------------------------------------------------------------------------

Reading the OPT-File                    .... done
Getting information on internals        .... done
Copying old internal coords+grads       .... done
Making the new internal coordinates     .... (new redundants).... done
Validating the new internal coordinates .... (new redundants).... done
Calculating the B-matrix                .... done
Calculating the G,G- and P matrices     .... done
Transforming gradient to internals      .... done
Projecting the internal gradient        .... done
Number of atoms                         ....  14
Number of internal coordinates          ....  51
Current Energy                          ....  -270.175673422 Eh
Current gradient norm                   ....     0.026288505 Eh/bohr
Maximum allowed component of the step   ....  0.300
Current trust radius                    ....  0.300
Evaluating the initial hessian          ....  (Almloef) done
Projecting the Hessian                  .... done
Diagonalizing the Hessian               .... done
Dimension of the hessian                ....  51
Lowest eigenvalues of the Hessian:
  0.001918272  0.026727660  0.028509420  0.028516836  0.032531188
Hessian has   0 negative eigenvalues
Taking P-RFO step
Searching for lambda that maximizes along the lowest mode
TS mode is mode number   0 with eigenvalue   0.00191827 and components:
   1.   -0.00000000
   2.    0.00000000
   3.    0.00000000
   4.    0.00000000
   5.   -0.00000000
   6.    0.00000000
   7.    0.00000000
   8.    0.00000000
   9.   -0.00000000
  10.   -0.00000000
  11.   -0.00000000
  12.    0.00000000
  13.    0.00000000
  14.   -0.00000000
  15.   -0.00000000
  16.   -0.00000000
  17.    0.00000000
  18.    0.00000000
  19.    0.00000000
  20.    0.00000000
  21.    0.00000000
  22.   -0.00000000
  23.    0.00000000
  24.    0.00000000
  25.   -0.00000000
  26.   -0.00000000
  27.   -0.00000000
  28.    0.00000000
  29.   -0.00000000
  30.   -0.00000000
  31.   -0.00000000
  32.    0.00000000
  33.   -0.00000000
  34.    0.00000000
  35.   -0.00000000
  36.   -0.00000000
  37.    0.00000000
  38.    0.00000000
  39.   -0.57735027
  40.   -0.57735027
  41.   -0.57735027
  42.    0.00000000
  43.    0.00000000
  44.    0.00000000
  45.    0.00000000
  46.   -0.00000000
  47.    0.00000000
  48.    0.00000000
  49.   -0.00000000
  50.   -0.00000000
  51.   -0.00000000

Lambda that maximizes along the TS mode:       0.00217511
Searching for lambda that minimizes along all other modes
In cycle   1: lambdaN =  -0.00213925   step =   0.00213925
In cycle   2: lambdaN =  -0.00214044   step =   0.00000119
In cycle   3: lambdaN =  -0.00214044   step =   0.00000000
Lambda that minimizes along all other modes:  -0.00214044
Calculated stepsize too large (   0.5364 >    0.3000). Scaled with    0.5593.
The final length of the internal step   ....       0.3000
Converting the step to cartesian space:
 Initial RMS(Int)=    0.0420084025
Transforming coordinates:
 Iter   0:  RMS(Cart)=    0.1598442416 RMS(Int)=    0.8574452524
 Iter   1:  RMS(Cart)=    0.0136389639 RMS(Int)=    0.0060101823
 Iter   2:  RMS(Cart)=    0.0015551362 RMS(Int)=    0.0004681565
 Iter   3:  RMS(Cart)=    0.0002483130 RMS(Int)=    0.0001072811
 Iter   4:  RMS(Cart)=    0.0000293140 RMS(Int)=    0.0000097680
 Iter   5:  RMS(Cart)=    0.0000045079 RMS(Int)=    0.0000019057
 Iter   6:  RMS(Cart)=    0.0000005498 RMS(Int)=    0.0000002025
 Iter   7:  RMS(Cart)=    0.0000000811 RMS(Int)=    0.0000000330
done
Storing new coordinates                 .... done

                                .--------------------.
          ----------------------|Geometry convergence|-------------------------
          Item                value                   Tolerance       Converged
          ---------------------------------------------------------------------
          RMS gradient        0.0032151554            0.0001000000      NO
          MAX gradient        0.0107691221            0.0003000000      NO
          RMS step            0.0420084025            0.0020000000      NO
          MAX step            0.1677916432            0.0040000000      NO
          ........................................................
          Max(Bonds)      0.0298      Max(Angles)    0.80
          Max(Dihed)        9.61      Max(Improp)    0.00
          ---------------------------------------------------------------------

The optimization has not yet converged - more geometry cycles are needed


    ---------------------------------------------------------------------------
                         Redundant Internal Coordinates
                            (Angstroem and degrees)

        Definition                    Value    dE/dq     Step     New-Value  comp.(TS mode)
    ----------------------------------------------------------------------------
     1. B(C   1,C   0)                1.3832  0.003783 -0.0017    1.3815   
     2. B(O   2,C   1)                1.2878  0.010769 -0.0039    1.2839   
     3. B(C   3,O   2)                1.9043  0.008728 -0.0298    1.8745   
     4. B(C   4,C   3)                1.4021  0.001464 -0.0007    1.4014   
     5. B(C   5,C   4)                1.3832  0.003531 -0.0016    1.3816   
     6. B(H   6,C   0)                1.0877 -0.004546  0.0037    1.0914   
     7. B(H   7,C   0)                1.0838 -0.005391  0.0043    1.0881   
     8. B(H   8,C   1)                1.1042 -0.003749  0.0032    1.1075   
     9. B(H   9,C   3)                1.0847 -0.004829  0.0039    1.0885   
    10. B(H  10,C   3)                1.0859 -0.005093  0.0041    1.0900   
    11. B(H  11,C   4)                1.0884 -0.004369  0.0035    1.0919   
    12. B(H  12,C   5)                1.0866 -0.004796  0.0039    1.0904   
    13. B(H  13,C   5)                1.0856 -0.005321  0.0043    1.0899   
    14. A(H   6,C   0,H   7)          116.86 -0.000839    0.09    116.95   
    15. A(C   1,C   0,H   6)          119.90  0.000322   -0.03    119.88   
    16. A(C   1,C   0,H   7)          119.86  0.000555   -0.05    119.81   
    17. A(C   0,C   1,H   8)          117.87 -0.000979    0.06    117.93   
    18. A(C   0,C   1,O   2)          122.86  0.001875   -0.15    122.71   
    19. A(O   2,C   1,H   8)          118.15 -0.000800    0.04    118.18   
    20. A(C   1,O   2,C   3)          108.35  0.005622   -0.56    107.79   
    21. A(O   2,C   3,C   4)          101.92  0.006355   -0.80    101.12   
    22. A(C   4,C   3,H  10)          119.44 -0.000071    0.01    119.44   
    23. A(O   2,C   3,H  10)           95.12 -0.001926    0.03     95.15   
    24. A(C   4,C   3,H   9)          120.15 -0.000796    0.12    120.27   
    25. A(O   2,C   3,H   9)           97.22 -0.003049    0.29     97.51   
    26. A(H   9,C   3,H  10)          114.46  0.000038    0.12    114.57   
    27. A(C   3,C   4,H  11)          118.01 -0.001724    0.08    118.09   
    28. A(C   5,C   4,H  11)          118.64 -0.001388    0.05    118.69   
    29. A(C   3,C   4,C   5)          119.83  0.003428   -0.31    119.52   
    30. A(H  12,C   5,H  13)          114.97 -0.000741    0.11    115.08   
    31. A(C   4,C   5,H  13)          120.49  0.000397   -0.01    120.48   
    32. A(C   4,C   5,H  12)          121.07  0.000271   -0.00    121.07   
    33. D(H   8,C   1,C   0,H   6)    -13.02  0.000192   -0.14    -13.16   
    34. D(H   8,C   1,C   0,H   7)   -171.61  0.000251   -0.20   -171.81   
    35. D(O   2,C   1,C   0,H   7)     20.75 -0.000154    0.10     20.85   
    36. D(O   2,C   1,C   0,H   6)    179.35 -0.000214    0.16    179.51   
    37. D(C   3,O   2,C   1,H   8)    -90.56  0.001502   -0.87    -91.43   
    38. D(C   3,O   2,C   1,C   0)     77.04  0.001888   -1.16     75.87   
    39. D(H  10,C   3,O   2,C   1)     66.60  0.000113   -9.61     56.99          0.58
    40. D(H   9,C   3,O   2,C   1)   -177.91 -0.000687   -9.61   -187.53          0.58
    41. D(C   4,C   3,O   2,C   1)    -54.95 -0.000721   -9.61    -64.56          0.58
    42. D(H  11,C   4,C   3,H   9)     16.10  0.000819   -0.47     15.63   
    43. D(H  11,C   4,C   3,O   2)    -89.63  0.000626   -0.35    -89.97   
    44. D(C   5,C   4,C   3,H  10)    -34.02 -0.000426   -0.39    -34.41   
    45. D(C   5,C   4,C   3,H   9)    174.65  0.001419   -0.98    173.67   
    46. D(H  11,C   4,C   3,H  10)    167.44 -0.001027    0.12    167.55   
    47. D(C   5,C   4,C   3,O   2)     68.92  0.001227   -0.85     68.06   
    48. D(H  13,C   5,C   4,H  11)   -172.29  0.000282   -0.22   -172.51   
    49. D(H  13,C   5,C   4,C   3)     29.30 -0.000260    0.28     29.58   
    50. D(H  12,C   5,C   4,H  11)    -14.35 -0.000101    0.09    -14.26   
    51. D(H  12,C   5,C   4,C   3)   -172.76 -0.000643    0.60   -172.16   
    ----------------------------------------------------------------------------

         *************************************************************
         *                GEOMETRY OPTIMIZATION CYCLE   2            *
         *************************************************************
---------------------------------
CARTESIAN COORDINATES (ANGSTROEM)
---------------------------------
  C     -1.439432    0.805530   -0.154672
  C     -1.285690   -0.510957    0.234849
  O     -0.476152   -1.317540   -0.350342
  C      1.261555   -0.889675    0.207358
  C      1.404575    0.401052   -0.319441
  C      0.649837    1.435450    0.199327
  H     -2.147355    1.448850    0.370870
  H     -1.145754    1.110843   -1.156937
  H     -1.719233   -0.818391    1.206448
  H      1.771428   -1.731632   -0.257478
  H      1.056728   -1.015560    1.270526
  H      1.809808    0.502617   -1.328274
  H      0.645287    2.419421   -0.270564
  H      0.333657    1.420052    1.242228

----------------------------
CARTESIAN COORDINATES (A.U.)
----------------------------
  NO LB      ZA    FRAG     MASS         X           Y           Z
   0 C     6.0000    0    12.011   -2.720132    1.522231   -0.292287
   1 C     6.0000    0    12.011   -2.429601   -0.965569    0.443799
   2 O     8.0000    0    15.999   -0.899798   -2.489790   -0.662051
   3 C     6.0000    0    12.011    2.383993   -1.681242    0.391850
   4 C     6.0000    0    12.011    2.654263    0.757879   -0.603656
   5 C     6.0000    0    12.011    1.228013    2.712608    0.376673
   6 H     1.0000    0     1.008   -4.057913    2.737930    0.700843
   7 H     1.0000    0     1.008   -2.165161    2.099188   -2.186294
   8 H     1.0000    0     1.008   -3.248880   -1.546535    2.279857
   9 H     1.0000    0     1.008    3.347513   -3.272311   -0.486562
  10 H     1.0000    0     1.008    1.996927   -1.919131    2.400946
  11 H     1.0000    0     1.008    3.420041    0.949808   -2.510074
  12 H     1.0000    0     1.008    1.219415    4.572043   -0.511292
  13 H     1.0000    0     1.008    0.630521    2.683509    2.347472

--------------------------------
INTERNAL COORDINATES (ANGSTROEM)
--------------------------------
 C      0   0   0     0.000000000000     0.00000000     0.00000000
 C      1   0   0     1.381485230587     0.00000000     0.00000000
 O      2   1   0     1.283890503066   122.70620093     0.00000000
 C      3   2   1     1.874493381709   107.78921715    75.87394753
 C      4   3   2     1.401409374661   101.12771871   295.47785721
 C      5   4   3     1.381568183351   119.51677640    68.06953145
 H      1   2   3     1.091425918081   119.87530654   179.50769646
 H      1   2   3     1.088116933463   119.80580786    20.85288334
 H      2   1   3     1.107466463898   117.92662295   167.33531994
 H      4   3   2     1.088547274641    97.50540528   172.51677809
 H      4   3   2     1.090012404187    95.14245217    56.90100761
 H      5   4   3     1.091911979293   118.08944155   270.03202455
 H      6   5   4     1.090420603113   121.07045504   187.83707134
 H      6   5   4     1.089885282316   120.47802299    29.58188263

---------------------------
INTERNAL COORDINATES (A.U.)
---------------------------
 C      0   0   0     0.000000000000     0.00000000     0.00000000
 C      1   0   0     2.610628743867     0.00000000     0.00000000
 O      2   1   0     2.426201436737   122.70620093     0.00000000
 C      3   2   1     3.542279131278   107.78921715    75.87394753
 C      4   3   2     2.648279919619   101.12771871   295.47785721
 C      5   4   3     2.610785501873   119.51677640    68.06953145
 H      1   2   3     2.062496080637   119.87530654   179.50769646
 H      1   2   3     2.056243005928   119.80580786    20.85288334
 H      2   1   3     2.092808319269   117.92662295   167.33531994
 H      4   3   2     2.057056232898    97.50540528   172.51677809
 H      4   3   2     2.059824926490    95.14245217    56.90100761
 H      5   4   3     2.063414603211   118.08944155   270.03202455
 H      6   5   4     2.060596310670   121.07045504   187.83707134
 H      6   5   4     2.059584700968   120.47802299    29.58188263

------------------------------------------------------------------------------
                   ___                                                        
                  /   \      - P O W E R E D   B Y -                         
                 /     \                                                     
                 |  |  |   _    _      __       _____    __    __             
                 |  |  |  | |  | |    /  \     |  _  \  |  |  /  |          
                  \  \/   | |  | |   /    \    | | | |  |  | /  /          
                 / \  \   | |__| |  /  /\  \   | |_| |  |  |/  /          
                |  |  |   |  __  | /  /__\  \  |    /   |      \           
                |  |  |   | |  | | |   __   |  |    \   |  |\   \          
                \     /   | |  | | |  |  |  |  | |\  \  |  | \   \       
                 \___/    |_|  |_| |__|  |__|  |_| \__\ |__|  \__/        
                                                                              
                      - O R C A' S   B I G   F R I E N D -                    
                                      &                                       
                       - I N T E G R A L  F E E D E R -                       
                                                                              
 v1 FN, 2020, v2 2021                                                         
------------------------------------------------------------------------------


Reading SHARK input file claisen_ts.SHARKINP.tmp ... ok
----------------------
SHARK INTEGRAL PACKAGE
----------------------

Number of atoms                             ...     14
Number of basis functions                   ...    124
Number of shells                            ...     60
Maximum angular momentum                    ...      2
Integral batch strategy                     ... SHARK/LIBINT Hybrid
RI-J (if used) integral strategy            ... SPLIT-RIJ (Revised 2003 algorithm where possible)
Printlevel                                  ...      1
Contraction scheme used                     ... SEGMENTED contraction
Coulomb Range Separation                    ... NOT USED
Exchange Range Separation                   ... Long Range
   Mu parameter                             ...  0.250000
   Scaling (regular/separated)              ...  0.195728  0.804272
Finite Nucleus Model                        ... NOT USED
Auxiliary Coulomb fitting basis             ... AVAILABLE
   # of basis functions in Aux-J            ...    382
   # of shells in Aux-J                     ...    130
   Maximum angular momentum in Aux-J        ...      4
Auxiliary J/K fitting basis                 ... NOT available
Auxiliary Correlation fitting basis         ... NOT available
Auxiliary 'external' fitting basis          ... NOT available
Integral threshold                          ...     2.500000e-11
Primitive cut-off                           ...     2.500000e-12
Primitive pair pre-selection threshold      ...     2.500000e-12

Calculating pre-screening integrals         ... done (  0.0 sec) Dimension = 60
Organizing shell pair data                  ... done (  0.0 sec)
Shell pair information
Total number of shell pairs                 ...      1830
Shell pairs after pre-screening             ...      1808
Total number of primitive shell pairs       ...      6430
Primitive shell pairs kept                  ...      4992
          la=0 lb=0:    584 shell pairs
          la=1 lb=0:    671 shell pairs
          la=1 lb=1:    209 shell pairs
          la=2 lb=0:    203 shell pairs
          la=2 lb=1:    120 shell pairs
          la=2 lb=2:     21 shell pairs

Calculating one electron integrals          ... done (  0.0 sec)
Calculating RI/J V-Matrix + Cholesky decomp.... done (  0.0 sec)
Calculating Nuclear repulsion               ... done (  0.0 sec) ENN=    231.207350865252 Eh

SHARK setup successfully completed in   0.1 seconds

Maximum memory used throughout the entire GTOINT-calculation: 15.1 MB

Diagonalization of the overlap matrix:
Smallest eigenvalue                        ... 1.959e-03
Time for diagonalization                   ...    0.004 sec
Threshold for overlap eigenvalues          ... 1.000e-08
Number of eigenvalues below threshold      ... 0
Time for construction of square roots      ...    0.001 sec
Total time needed                          ...    0.005 sec

-------------------
DFT GRID GENERATION
-------------------

General Integration Accuracy     IntAcc      ... 4.388
Radial Grid Type                 RadialGrid  ... OptM3 with GC (2021)
Angular Grid (max. ang.)         AngularGrid ... 4 (Lebedev-302)
Angular grid pruning method      GridPruning ... 4 (adaptive)
Weight generation scheme         WeightScheme... Becke
Basis function cutoff            BFCut       ... 1.0000e-11
Integration weight cutoff        WCut        ... 1.0000e-14
Angular grids for H and He will be reduced by one unit
Partially contracted basis set               ... off
Rotationally invariant grid construction     ... off

Total number of grid points                  ...    61988
Total number of batches                      ...      976
Average number of points per batch           ...       63
Average number of grid points per atom       ...     4428
Time for grid setup =    0.439 sec

--------------------
COSX GRID GENERATION
--------------------

GRIDX 1
-------
General Integration Accuracy     IntAcc      ... 3.816
Radial Grid Type                 RadialGrid  ... OptM3 with GC (2021)
Angular Grid (max. ang.)         AngularGrid ... 1 (Lebedev-50)
Angular grid pruning method      GridPruning ... 4 (adaptive)
Weight generation scheme         WeightScheme... Becke
Basis function cutoff            BFCut       ... 1.0000e-11
Integration weight cutoff        WCut        ... 1.0000e-14
Angular grids for H and He will be reduced by one unit
Partially contracted basis set               ... on
Rotationally invariant grid construction     ... off

[...]
      8      -0.032421   0.007997  -0.032727  -0.008364   0.081131  -0.005782
      9      -0.059664  -0.010583  -0.025567   0.023261  -0.032904  -0.013697
     10      -0.063305   0.064226  -0.036120   0.028832  -0.015127  -0.007008
     11      -0.006963  -0.094870   0.069361  -0.031065   0.015742   0.028669
     12       0.022338  -0.002103   0.055871  -0.077368   0.018255   0.034240
     13       0.021216  -0.094431   0.030817  -0.013430  -0.032688  -0.120018
     14       0.022685   0.052283  -0.121939   0.145965  -0.019299  -0.010412
     15      -0.044796   0.002536  -0.013823   0.068249   0.008632   0.013154
     16       0.000973   0.036958   0.003677  -0.029542   0.009735  -0.002254
     17      -0.023682   0.042189   0.060537  -0.108934  -0.005183  -0.031595
     18      -0.017471   0.001382  -0.069986  -0.072142   0.038629   0.011660
     19      -0.094296   0.079459   0.132918   0.062665  -0.066042   0.079345
     20       0.057239  -0.077704  -0.251567  -0.169178   0.132552  -0.077247
     21      -0.081945  -0.026453  -0.223051  -0.126055   0.151436  -0.014187
     22       0.040246   0.202369   0.599527   0.326543  -0.077531   0.028345
     23      -0.032064  -0.022687  -0.094359  -0.048011   0.004301   0.020781
     24      -0.088936   0.074940   0.042217   0.065817   0.474044  -0.134063
     25       0.032194  -0.199286  -0.314969  -0.229061  -0.757724   0.250559
     26      -0.006753   0.035992   0.149077   0.076511  -0.055433  -0.009589
     27       0.414158   0.009582   0.069569  -0.138528   0.130438   0.033111
     28       0.104903   0.069361   0.025604  -0.023355   0.091015   0.289182
     29       0.155478  -0.062486   0.044366  -0.077930   0.002251  -0.351287
     30       0.693490   0.117274   0.021871  -0.113020   0.069752  -0.126266
     31       0.247697   0.455923  -0.376068   0.249272  -0.039920   0.282840
     32       0.119741  -0.032626   0.027402  -0.013517   0.022226   0.052292
     33       0.094731   0.198245   0.019690  -0.177881  -0.059194  -0.101119
     34       0.097440  -0.735061   0.121050   0.449580   0.240169   0.374062
     35       0.051787   0.025920  -0.130574   0.198430  -0.006758   0.019559
     36       0.041448  -0.143874  -0.006009  -0.108160  -0.068357  -0.193157
     37       0.049584   0.038105  -0.004146  -0.057508   0.046226   0.198702
     38       0.077631   0.053080   0.017101  -0.112703   0.080484   0.437755
     39       0.391287  -0.148739  -0.171956   0.247315  -0.017259  -0.070389
     40       0.024252   0.071240   0.278698  -0.488712   0.068696   0.393223
     41       0.065447   0.022310   0.050465  -0.113919  -0.002874  -0.011164
                 30         31         32         33         34         35    
      0      -0.001672  -0.008378  -0.053376   0.037773  -0.002554   0.004413
      1       0.108741   0.022753   0.114957  -0.175908  -0.000814  -0.009589
      2      -0.086590  -0.010111  -0.054379   0.058651   0.002435   0.003832
      3      -0.105621  -0.001929   0.061396  -0.157921   0.028440  -0.000243
      4       0.070662  -0.016587  -0.157927   0.323709   0.020830   0.001943
      5       0.086640   0.009380   0.029388   0.004657  -0.076641  -0.001213
      6       0.056842   0.006823   0.002772   0.078569   0.001683   0.000539
      7      -0.072191  -0.003868   0.031808  -0.102833  -0.001702  -0.000243
      8      -0.038529  -0.005162   0.000972  -0.040147  -0.000604  -0.000070
      9       0.030915  -0.010727  -0.055215   0.016285  -0.001110  -0.000852
     10      -0.013379   0.129787   0.057232   0.152537  -0.000301   0.001542
     11       0.012294  -0.061808  -0.010043  -0.029079  -0.000305  -0.002707
     12      -0.005800  -0.036159   0.064490   0.090239  -0.000230  -0.000235
     13       0.007012  -0.046361  -0.159821  -0.291695   0.000035  -0.006831
     14       0.002945   0.054496  -0.036279  -0.031423   0.000053   0.008477
     15      -0.001576   0.048662  -0.038373  -0.099525  -0.000410  -0.016339
     16      -0.023118  -0.061832   0.129676   0.148647  -0.000104   0.052139
     17      -0.011582  -0.058208   0.067263   0.068216   0.000028   0.039239
     18      -0.064198  -0.015414  -0.023925   0.063949   0.042460  -0.073661
     19      -0.386549  -0.032655  -0.064101  -0.022828  -0.038124   0.079600
     20       0.592111   0.070526   0.301004  -0.211015  -0.031941   0.052250
     21       0.317271   0.055358   0.256864  -0.175963  -0.003865   0.021761
     22      -0.374214  -0.057857  -0.241790   0.236477  -0.000081   0.012765
     23      -0.082490  -0.009882  -0.051543   0.105605   0.015775  -0.094670
     24       0.080334  -0.024737  -0.202736   0.226609  -0.361137  -0.002007
     25      -0.227015   0.057124   0.322428  -0.382940  -0.171718  -0.001889
     26       0.106768   0.015769   0.043423  -0.027834   0.910152   0.006972
     27      -0.064739  -0.046732   0.051716  -0.068473   0.001452   0.006477
     28       0.061518  -0.272860   0.042388   0.025963  -0.000853  -0.009464
     29      -0.181855   0.518483   0.124299   0.128228   0.000199  -0.008363
     30      -0.155399   0.251538   0.162230   0.028240   0.003692  -0.002082
     31       0.153451  -0.460120  -0.161620  -0.208987  -0.000053  -0.003990
     32       0.017598  -0.133585  -0.028014  -0.105225   0.002169   0.038015
     33       0.007859  -0.035487  -0.063747  -0.079756  -0.000334   0.039774
     34      -0.034722   0.050504   0.287175   0.309869  -0.000011   0.020748
     35       0.001281   0.086802  -0.020348  -0.001545   0.000644  -0.131144
     36      -0.027435  -0.153723   0.030518   0.046604   0.000509   0.024291
     37       0.029031   0.109119  -0.045670   0.075223   0.001883  -0.610675
     38       0.114309   0.376716  -0.385653  -0.196061   0.000688   0.266818
     39       0.002094  -0.037439  -0.003743   0.059981   0.002920   0.134845
     40       0.137942   0.337359  -0.454400  -0.274820   0.001886   0.049616
     41      -0.000363  -0.053476   0.049662   0.098799  -0.001210  -0.696303
                 36         37         38         39         40         41    
      0       0.030268  -0.004836   0.000114   0.000554   0.003112  -0.045253
      1      -0.055406   0.009511   0.000384   0.000022  -0.001679   0.022982
      2       0.023588  -0.004002  -0.000139  -0.001264  -0.005734   0.085452
      3       0.001194   0.000178   0.000177   0.000115  -0.000401  -0.001574
      4       0.007592  -0.001668   0.000071  -0.000191   0.000156   0.000411
      5      -0.007108   0.000807   0.000127  -0.000104  -0.000105   0.002678
      6      -0.000624  -0.000352   0.000185  -0.000085  -0.000068   0.000185
      7       0.000118   0.000472  -0.000067   0.000216   0.000266  -0.000129
      8       0.000271  -0.000334   0.000028   0.000077   0.000562  -0.000165
      9       0.002921   0.014764   0.001951   0.000872   0.035301   0.002672
     10      -0.008113  -0.050496   0.004551  -0.000340  -0.045681  -0.003117
     11       0.007599   0.043795  -0.012185  -0.001419  -0.080393  -0.005468
     12      -0.000402  -0.002292  -0.027413  -0.003172   0.002481   0.000104
     13       0.001184   0.004077  -0.011522  -0.001041   0.002357  -0.000080
     14      -0.000122   0.006471   0.080357   0.008726  -0.007589  -0.000581
     15       0.001606  -0.001083   0.005577  -0.007505  -0.000293  -0.000371
     16      -0.007465   0.003176  -0.004622  -0.060608   0.000893  -0.000767
     17      -0.006379   0.001128  -0.015329   0.078230  -0.000353   0.000269
     18      -0.480964   0.079547   0.001126  -0.004372  -0.026210   0.375166
     19       0.501366  -0.082736  -0.001737   0.004748   0.027524  -0.393900
     20       0.329395  -0.054550  -0.001716   0.003063   0.017627  -0.249880
     21       0.135886  -0.023240  -0.002281  -0.003768  -0.011389   0.172232
     22       0.078261  -0.013119  -0.000433  -0.002162  -0.007941   0.114546
     23      -0.571239   0.094376   0.004568   0.006058   0.051199  -0.763874
     24      -0.018175   0.003178  -0.000530   0.000837  -0.001498   0.008763
     25      -0.013584   0.001932   0.000007   0.000414  -0.000339   0.005144
     26       0.046259  -0.005369   0.000302  -0.001827   0.001620  -0.025202
     27      -0.042321  -0.251745  -0.007813  -0.007673  -0.361232  -0.024664
     28       0.069671   0.416566   0.008157   0.010641   0.609055   0.041789
     29       0.048852   0.290550   0.007607   0.006764   0.405825   0.027719
     30       0.012738   0.077999  -0.012358  -0.000021  -0.052146  -0.003674
     31       0.020051   0.117925  -0.019346   0.001049  -0.090168  -0.005934
     32      -0.136343  -0.784052   0.122048   0.007329   0.548845   0.037343
     33       0.000306   0.030050   0.288239   0.028826  -0.024148  -0.000059
     34      -0.000296   0.012977   0.134605   0.011756  -0.013683  -0.000375
     35       0.000276  -0.096861  -0.919760  -0.093074   0.080341   0.002854
     36      -0.001600   0.001438  -0.003071  -0.031336   0.000893   0.000151
     37       0.091451  -0.040314   0.022797   0.676318  -0.006231   0.009254
     38      -0.039546   0.015904  -0.009145  -0.279944   0.003037  -0.003758
     39      -0.019999   0.008143  -0.032762   0.127711  -0.002195  -0.001532
     40      -0.007543   0.001096  -0.010288   0.034466   0.001297   0.000015
     41       0.108575  -0.029019   0.166151  -0.652525   0.004733  -0.003826


-----------
IR SPECTRUM
-----------

 Mode   freq       eps      Int      T**2         TX        TY        TZ
       cm**-1   L/(mol*cm) km/mol    a.u.
----------------------------------------------------------------------------
  7:    180.39   0.000596    3.01  0.001032  (-0.003431 -0.017751  0.026552)
  8:    291.42   0.006361   32.15  0.006812  (-0.075634 -0.032171 -0.007517)
  9:    335.88   0.000135    0.68  0.000126  (-0.003776 -0.009870  0.003740)
 10:    392.84   0.000150    0.76  0.000119  ( 0.003782 -0.010232  0.000595)
 11:    444.78   0.001691    8.55  0.001187  ( 0.012297  0.027450  0.016787)
 12:    487.58   0.000334    1.69  0.000214  (-0.013853 -0.004486  0.001309)
 13:    545.32   0.003205   16.19  0.001834  ( 0.018376  0.037259 -0.010389)
 14:    762.43   0.006668   33.70  0.002729  ( 0.051939 -0.005138  0.002253)
 15:    830.80   0.002315   11.70  0.000869  (-0.026089 -0.013742  0.000118)
 16:    887.47   0.011080   55.99  0.003896  ( 0.046841  0.040543  0.007639)
 17:    914.58   0.002821   14.25  0.000962  (-0.023726 -0.015944 -0.012054)
 18:    970.15   0.000364    1.84  0.000117  (-0.007584 -0.006143  0.004673)
 19:   1005.64   0.005020   25.37  0.001558  (-0.035172 -0.017745  0.002416)
 20:   1011.32   0.002369   11.97  0.000731  (-0.026187  0.006499  0.001705)
 21:   1034.79   0.000219    1.10  0.000066  ( 0.003262 -0.004561 -0.005873)
 22:   1043.44   0.000229    1.15  0.000068  ( 0.000716 -0.008236  0.000007)
 23:   1070.38   0.000280    1.41  0.000082  ( 0.005063  0.004675 -0.005832)
 24:   1118.82   0.000354    1.79  0.000099  ( 0.000794  0.002776  0.009513)
 25:   1252.52   0.001588    8.03  0.000396  (-0.018410  0.006168 -0.004327)
 26:   1267.79   0.002895   14.63  0.000713  (-0.020823 -0.007919  0.014706)
 27:   1291.35   0.000112    0.57  0.000027  ( 0.000938 -0.001173 -0.004976)
 28:   1365.30   0.002154   10.89  0.000492  ( 0.003768 -0.019157 -0.010547)
 29:   1415.75   0.002955   14.93  0.000651  (-0.015691  0.020119  0.000541)
 30:   1473.70   0.002276   11.50  0.000482  (-0.008202  0.008559  0.018479)
 31:   1520.49   0.001352    6.83  0.000277  (-0.003326  0.001764  0.016227)
 32:   1559.20   0.003725   18.83  0.000746  (-0.024346 -0.012299  0.001278)
 33:   1671.41   0.013079   66.10  0.002442  (-0.017748  0.045971  0.003693)
 34:   3021.84   0.014673   74.15  0.001515  ( 0.023449  0.008741 -0.029817)
 35:   3166.29   0.001222    6.18  0.000120  (-0.001537  0.008010  0.007344)
 36:   3169.61   0.001779    8.99  0.000175  ( 0.011690 -0.006179 -0.000536)
 37:   3171.39   0.001921    9.71  0.000189  ( 0.005599 -0.008508  0.009238)
 38:   3196.03   0.000862    4.36  0.000084  (-0.006777 -0.001988  0.005854)
 39:   3264.17   0.000415    2.10  0.000040  (-0.000146 -0.002293  0.005863)
 40:   3275.79   0.000741    3.74  0.000071  ( 0.002628 -0.003447 -0.007194)
 41:   3279.26   0.000427    2.16  0.000041  (-0.002787  0.002525  0.005143)

* The epsilon (eps) is given for a Dirac delta lineshape.
** The dipole moment derivative (T) already includes vibrational overlap.

The first frequency considered to be a vibration is 7
The total number of vibrations considered is 35


--------------------------
THERMOCHEMISTRY AT 298.15K
--------------------------

Temperature         ... 298.15 K
Pressure            ... 1.00 atm
Total Mass          ... 84.12 AMU

Throughout the following assumptions are being made:
  (1) The electronic state is orbitally nondegenerate
  (2) There are no thermally accessible electronically excited states
  (3) Hindered rotations indicated by low frequency modes are not
      treated as such but are treated as vibrations and this may
      cause some error
  (4) All equations used are the standard statistical mechanics
      equations for an ideal gas
  (5) All vibrations are strictly harmonic

freq.     180.39  E(vib)   ...       0.37 
freq.     291.42  E(vib)   ...       0.27 
freq.     335.88  E(vib)   ...       0.24 
freq.     392.84  E(vib)   ...       0.20 
freq.     444.78  E(vib)   ...       0.17 
freq.     487.58  E(vib)   ...       0.15 
freq.     545.32  E(vib)   ...       0.12 
freq.     762.43  E(vib)   ...       0.06 
freq.     830.80  E(vib)   ...       0.04 
freq.     887.47  E(vib)   ...       0.04 
freq.     914.58  E(vib)   ...       0.03 
freq.     970.15  E(vib)   ...       0.03 
freq.    1005.64  E(vib)   ...       0.02 
freq.    1011.32  E(vib)   ...       0.02 
freq.    1034.79  E(vib)   ...       0.02 
freq.    1043.44  E(vib)   ...       0.02 
freq.    1070.38  E(vib)   ...       0.02 
freq.    1118.82  E(vib)   ...       0.01 
freq.    1252.52  E(vib)   ...       0.01 
freq.    1267.79  E(vib)   ...       0.01 
freq.    1291.35  E(vib)   ...       0.01 
freq.    1365.30  E(vib)   ...       0.01 
freq.    1415.75  E(vib)   ...       0.00 
freq.    1473.70  E(vib)   ...       0.00 
freq.    1520.49  E(vib)   ...       0.00 
freq.    1559.20  E(vib)   ...       0.00 
freq.    1671.41  E(vib)   ...       0.00 
freq.    3021.84  E(vib)   ...       0.00 
freq.    3166.29  E(vib)   ...       0.00 
freq.    3169.61  E(vib)   ...       0.00 
freq.    3171.39  E(vib)   ...       0.00 
freq.    3196.03  E(vib)   ...       0.00 
freq.    3264.17  E(vib)   ...       0.00 
freq.    3275.79  E(vib)   ...       0.00 
freq.    3279.26  E(vib)   ...       0.00 

------------
INNER ENERGY
------------

The inner energy is: U= E(el) + E(ZPE) + E(vib) + E(rot) + E(trans)
    E(el)   - is the total energy from the electronic structure calculation
              = E(kin-el) + E(nuc-el) + E(el-el) + E(nuc-nuc)
    E(ZPE)  - the the zero temperature vibrational energy from the frequency calculation
    E(vib)  - the the finite temperature correction to E(ZPE) due to population
              of excited vibrational states
    E(rot)  - is the rotational thermal energy
    E(trans)- is the translational thermal energy

Summary of contributions to the inner energy U:
Electronic energy                ...   -270.17660598 Eh
Zero point energy                ...      0.11775825 Eh      73.89 kcal/mol
Thermal vibrational correction   ...      0.00297574 Eh       1.87 kcal/mol
Thermal rotational correction    ...      0.00141627 Eh       0.89 kcal/mol
Thermal translational correction ...      0.00141627 Eh       0.89 kcal/mol
-----------------------------------------------------------------------
Total thermal energy                   -270.05303945 Eh


Summary of corrections to the electronic energy:
(perhaps to be used in another calculation)
Total thermal correction                  0.00580828 Eh       3.64 kcal/mol
Non-thermal (ZPE) correction              0.11775825 Eh      73.89 kcal/mol
-----------------------------------------------------------------------
Total correction                          0.12356653 Eh      77.54 kcal/mol


--------
ENTHALPY
--------

The enthalpy is H = U + kB*T
                kB is Boltzmann's constant
Total free energy                 ...   -270.05303945 Eh 
Thermal Enthalpy correction       ...      0.00094421 Eh       0.59 kcal/mol
-----------------------------------------------------------------------
Total Enthalpy                    ...   -270.05209524 Eh


Note: Only C1 symmetry has been detected, increase convergence thresholds 
      if your molecule has a higher symmetry. Symmetry factor of 1.0 is   
      used for the rotational entropy correction. 
 

Note: Rotational entropy computed according to Herzberg 
Infrared and Raman Spectra, Chapter V,1, Van Nostrand Reinhold, 1945 
Point Group:  C1, Symmetry Number:   1  
Rotational constants in cm-1:     0.161718     0.135789     0.084381 

Vibrational entropy computed according to the QRRHO of S. Grimme
Chem.Eur.J. 2012 18 9955


-------
ENTROPY
-------

The entropy contributions are T*S = T*(S(el)+S(vib)+S(rot)+S(trans))
     S(el)   - electronic entropy
     S(vib)  - vibrational entropy
     S(rot)  - rotational entropy
     S(trans)- translational entropy
The entropies will be listed as multiplied by the temperature to get
units of energy

Electronic entropy                ...      0.00000000 Eh      0.00 kcal/mol
Vibrational entropy               ...      0.00452405 Eh      2.84 kcal/mol
Rotational entropy                ...      0.01248072 Eh      7.83 kcal/mol
Translational entropy             ...      0.01862630 Eh     11.69 kcal/mol
-----------------------------------------------------------------------
Final entropy term                ...      0.03563106 Eh     22.36 kcal/mol

In case the symmetry of your molecule has not been determined correctly
or in case you have a reason to use a different symmetry number we print 
out the resulting rotational entropy values for sn=1,12 :
 --------------------------------------------------------
|  sn= 1 | S(rot)=       0.01248072 Eh      7.83 kcal/mol|
|  sn= 2 | S(rot)=       0.01182626 Eh      7.42 kcal/mol|
|  sn= 3 | S(rot)=       0.01144343 Eh      7.18 kcal/mol|
|  sn= 4 | S(rot)=       0.01117180 Eh      7.01 kcal/mol|
|  sn= 5 | S(rot)=       0.01096112 Eh      6.88 kcal/mol|
|  sn= 6 | S(rot)=       0.01078897 Eh      6.77 kcal/mol|
|  sn= 7 | S(rot)=       0.01064343 Eh      6.68 kcal/mol|
|  sn= 8 | S(rot)=       0.01051735 Eh      6.60 kcal/mol|
|  sn= 9 | S(rot)=       0.01040614 Eh      6.53 kcal/mol|
|  sn=10 | S(rot)=       0.01030666 Eh      6.47 kcal/mol|
|  sn=11 | S(rot)=       0.01021667 Eh      6.41 kcal/mol|
|  sn=12 | S(rot)=       0.01013451 Eh      6.36 kcal/mol|
 --------------------------------------------------------


-------------------
GIBBS FREE ENERGY
-------------------

The Gibbs free energy is G = H - T*S

Total enthalpy                    ...   -270.05209524 Eh 
Total entropy correction          ...     -0.03563106 Eh    -22.36 kcal/mol
-----------------------------------------------------------------------
Final Gibbs free energy         ...   -270.08772630 Eh

For completeness - the Gibbs free energy minus the electronic energy
G-E(el)                           ...      0.08887968 Eh     55.77 kcal/mol


Timings for individual modules:

Sum of individual times         ...     1287.715 sec (=  21.462 min)
GTO integral calculation        ...        3.131 sec (=   0.052 min)   0.2 %
SCF iterations                  ...      907.939 sec (=  15.132 min)  70.5 %
SCF Gradient evaluation         ...      218.531 sec (=   3.642 min)  17.0 %
Geometry relaxation             ...        0.747 sec (=   0.012 min)   0.1 %
Analytical frequency calculation...      157.368 sec (=   2.623 min)  12.2 %
                             ****ORCA TERMINATED NORMALLY****
TOTAL RUN TIME: 0 days 0 hours 21 minutes 30 seconds 182 msec
