 Entering Gaussian System, Link 0=g16
 Input=claisen_ts_IRCF.com
 Output=claisen_ts_IRCF.log
 Initial command:
 /usr/local/g16/l1.exe "/home/rpaton/Gau-3897454.inp" -scrdir="/home/rpaton/"
 Entering Link 1 = /usr/local/g16/l1.exe PID=   3897455.
  
 Copyright (c) 1988-2017, Gaussian, Inc.  All Rights Reserved.
  
 This is part of the Gaussian(R) 16 program.  It is based on
 the Gaussian(R) 09 system (copyright 2009, Gaussian, Inc.),
 the Gaussian(R) 03 system (copyright 2003, Gaussian, Inc.),
 the Gaussian(R) 98 system (copyright 1998, Gaussian, Inc.),
 the Gaussian(R) 94 system (copyright 1995, Gaussian, Inc.),
 the Gaussian 92(TM) system (copyright 1992, Gaussian, Inc.),
 the Gaussian 90(TM) system (copyright 1990, Gaussian, Inc.),
 the Gaussian 88(TM) system (copyright 1988, Gaussian, Inc.),
 the Gaussian 86(TM) system (copyright 1986, Carnegie Mellon
 University), and the Gaussian 82(TM) system (copyright 1983,
 Carnegie Mellon University). Gaussian is a federally registered
 trademark of Gaussian, Inc.
  
 This software contains proprietary and confidential information,
 including trade secrets, belonging to Gaussian, Inc.
  
 This software is provided under written license and may be
 used, copied, transmitted, or stored only in accord with that
 written license.
  
 The following legend is applicable only to US Government
 contracts under FAR:
  
                    RESTRICTED RIGHTS LEGEND
  
 Use, reproduction and disclosure by the US Government is
 subject to restrictions as set forth in subparagraphs (a)
 and (c) of the Commercial Computer Software - Restricted
 Rights clause in FAR 52.227-19.
  
 Gaussian, Inc.
 340 Quinnipiac St., Bldg. 40, Wallingford CT 06492
  
  
 ---------------------------------------------------------------
 Warning -- This program may not be used in any manner that
 competes with the business of Gaussian, Inc. or will provide
 assistance to any competitor of Gaussian, Inc.  The licensee
 of this program is prohibited from giving any competitor of
 Gaussian, Inc. access to this program.  By using this program,
 the user acknowledges that Gaussian, Inc. is engaged in the
 business of creating and licensing software in the field of
 computational chemistry and represents and warrants to the
 licensee that it is not a competitor of Gaussian, Inc. and that
 it will not use this program in any manner prohibited above.
 ---------------------------------------------------------------
  

 Cite this work as:
 Gaussian 16, Revision B.01,
 M. J. Frisch, G. W. Trucks, H. B. Schlegel, G. E. Scuseria, 
 M. A. Robb, J. R. Cheeseman, G. Scalmani, V. Barone, 
 G. A. Petersson, H. Nakatsuji, X. Li, M. Caricato, A. V. Marenich, 
 J. Bloino, B. G. Janesko, R. Gomperts, B. Mennucci, H. P. Hratchian, 
 J. V. Ortiz, A. F. Izmaylov, J. L. Sonnenberg, D. Williams-Young, 
 F. Ding, F. Lipparini, F. Egidi, J. Goings, B. Peng, A. Petrone, 
 T. Henderson, D. Ranasinghe, V. G. Zakrzewski, J. Gao, N. Rega, 
 G. Zheng, W. Liang, M. Hada, M. Ehara, K. Toyota, R. Fukuda, 
 J. Hasegawa, M. Ishida, T. Nakajima, Y. Honda, O. Kitao, H. Nakai, 
 T. Vreven, K. Throssell, J. A. Montgomery, Jr., J. E. Peralta, 
 F. Ogliaro, M. J. Bearpark, J. J. Heyd, E. N. Brothers, K. N. Kudin, 
 V. N. Staroverov, T. A. Keith, R. Kobayashi, J. Normand, 
 K. Raghavachari, A. P. Rendell, J. C. Burant, S. S. Iyengar, 
 J. Tomasi, M. Cossi, J. M. Millam, M. Klene, C. Adamo, R. Cammi, 
 J. W. Ochterski, R. L. Martin, K. Morokuma, O. Farkas, 
 J. B. Foresman, and D. J. Fox, Gaussian, Inc., Wallingford CT, 2016.
 
 ******************************************
 Gaussian 16:  ES64L-G16RevB.01 20-Dec-2017
                13-Jan-2022 
 ******************************************
 %chk=claisen_ts_IRCF.chk
 %mem=48GB
 %nprocshared=24
 Will use up to   24 processors via shared memory.
 ----------------------------------------------------------------------
 # irc(calcfc,forward,maxpoints=200,maxcycles=200,update=5) b3lyp/6-31g
 (d)
 ----------------------------------------------------------------------
 1/6=200,10=4,18=10,22=1,26=3,38=1,42=200,44=3,71=5,172=1/1,23;
 2/12=2,17=6,18=5,29=1,40=1/2;
 3/5=1,6=6,7=1,11=2,25=1,30=1,71=2,74=-5,140=1/1,2,3;
 4//1;
 5/5=2,38=5/2;
 8/6=4,10=90,11=11/1;
 11/6=1,8=1,9=11,15=111,16=1/1,2,10;
 10/6=1,13=1/2;
 6/7=2,8=2,9=2,10=2,28=1/1;
 7/10=1,18=20,25=1/1,2,3,16;
 1/6=200,10=4,18=10,22=1,26=3,42=200,44=3,71=5/23(2);
 2/29=1/2;
 99/5=20/99;
 2/29=1/2;
 3/5=1,6=6,7=1,11=2,25=1,30=1,71=2,74=-5,140=1/1,2,3;
 4/5=5,16=3,69=1/1;
 5/5=2,38=5/2;
 8/6=4,10=90,11=11/1;
 11/6=1,8=1,9=11,15=111,16=1/1,2,10;
 10/6=1,13=1/2;
 7/10=1,18=20,25=1/1,2,3,16;
 1/6=200,18=10,22=1,26=3,42=200,44=3,71=5/23(-8);
 2/29=1/2;
 6/7=2,8=2,9=2,10=2,19=2,28=1/1;
 99/5=20,9=1/99;
 --------------------------------------
 claisen_ts_IRCFcreated by GaussianPrep
 --------------------------------------
 Symbolic Z-matrix:
 Charge =  0 Multiplicity = 1
 C                    -1.46631   0.78417  -0.28998 
 C                    -1.29106  -0.47206   0.26184 
 O                    -0.51103  -1.35846  -0.25222 
 C                     1.28557  -0.90028   0.18203 
 C                     1.3747    0.4127   -0.3018 
 C                     0.66868   1.4253    0.32224 
 H                    -2.1459    1.4924    0.17879 
 H                    -1.2254    0.95369  -1.33299 
 H                    -1.67666  -0.64615   1.28181 
 H                     1.76639  -1.71191  -0.35332 
 H                     1.17354  -1.0695    1.24882 
 H                     1.6925    0.55703  -1.33268 
 H                     0.62903   2.42495  -0.1017 
 H                     0.44521   1.36818   1.38306 
 
 IRC-IRC-IRC-IRC-IRC-IRC-IRC-IRC-IRC-IRC-IRC-IRC-IRC-IRC-IRC-IRC-IRC-IRC
 ------------------------------------------------------------------------
 INPUT DATA FOR L123
 ------------------------------------------------------------------------
 GENERAL PARAMETERS:
 Rxn path following direction = Forward
 Maximum points per path      = 200
 Step size                    =   0.100 bohr
 Integration scheme           = HPC                                 
    Redo corrector integration= Yes                                 
    DWI Weight Power          =  2
    DWI will use Hessian update vectors when possible.
    Max correction cycles     = 200
 Initial Hessian              = CalcFC
 Hessian evaluation           = Analytic every   5 predictor steps
                              = Update at all corrector steps
 Hessian updating method      = Bofill                              
 ------------------------------------------------------------------------
 IRC-IRC-IRC-IRC-IRC-IRC-IRC-IRC-IRC-IRC-IRC-IRC-IRC-IRC-IRC-IRC-IRC-IRC
                          Input orientation:                          
 ---------------------------------------------------------------------
 Center     Atomic      Atomic             Coordinates (Angstroms)
 Number     Number       Type             X           Y           Z
 ---------------------------------------------------------------------
      1          6           0       -1.466309    0.784168   -0.289984
      2          6           0       -1.291057   -0.472055    0.261839
      3          8           0       -0.511026   -1.358456   -0.252221
      4          6           0        1.285570   -0.900284    0.182034
      5          6           0        1.374702    0.412704   -0.301796
      6          6           0        0.668679    1.425295    0.322236
      7          1           0       -2.145896    1.492398    0.178794
      8          1           0       -1.225400    0.953689   -1.332994
      9          1           0       -1.676663   -0.646151    1.281812
     10          1           0        1.766394   -1.711906   -0.353320
     11          1           0        1.173540   -1.069495    1.248816
     12          1           0        1.692496    0.557034   -1.332675
     13          1           0        0.629027    2.424945   -0.101698
     14          1           0        0.445205    1.368175    1.383056
 ---------------------------------------------------------------------
                    Distance matrix (angstroms):
                    1          2          3          4          5
     1  C    0.000000
     2  C    1.383227   0.000000
     3  O    2.346237   1.287794   0.000000
     4  C    3.260831   2.613189   1.904273   0.000000
     5  C    2.865217   2.864743   2.587554   1.402132   0.000000
     6  C    2.311716   2.728397   3.077495   2.410089   1.383194
     7  H    1.087741   2.143997   3.314505   4.183288   3.713666
     8  H    1.083810   2.140222   2.650361   3.469509   2.848958
     9  H    2.135557   1.104240   2.054104   3.170003   3.597196
    10  H    4.084699   3.356137   2.306900   1.084678   2.161029
    11  H    3.573902   2.721267   2.274725   1.085913   2.154478
    12  H    3.334193   3.535971   3.113196   2.140960   1.088364
    13  H    2.667964   3.494494   3.954302   3.401279   2.155269
    14  H    2.606533   2.767342   3.320094   2.700847   2.148398
                    6          7          8          9         10
     6  C    0.000000
     7  H    2.819027   0.000000
     8  H    2.559245   1.850141   0.000000
     9  H    3.272966   2.451575   3.098441   0.000000
    10  H    3.391664   5.084951   4.125044   3.957794   0.000000
    11  H    2.708766   4.327459   4.063733   2.881660   1.825105
    12  H    2.130917   4.229976   2.944733   4.431075   2.472385
    13  H    1.086551   2.940836   2.668255   4.081904   4.297727
    14  H    1.085607   2.859979   3.215532   2.927470   3.774578
                   11         12         13         14
    11  H    0.000000
    12  H    3.094997   0.000000
    13  H    3.785696   2.476966   0.000000
    14  H    2.547691   3.096592   1.831679   0.000000
 Symmetry turned off by external request.
 Stoichiometry    C5H8O
 Framework group  C1[X(C5H8O)]
 Deg. of freedom    36
 Full point group                 C1      NOp   1
 Rotational constants (GHZ):           4.8116473           3.8839115           2.4495412
 Standard basis: 6-31G(d) (6D, 7F)
   106 basis functions,   200 primitive gaussians,   106 cartesian basis functions
    23 alpha electrons       23 beta electrons
       nuclear repulsion energy       229.7151886868 Hartrees.
 NAtoms=   14 NActive=   14 NUniq=   14 SFac= 1.00D+00 NAtFMM=   60 NAOKFM=F Big=F
 Integral buffers will be    131072 words long.
 Raffenetti 2 integral format.
 Two-electron integral symmetry is turned off.
 One-electron integrals computed using PRISM.
 NBasis=   106 RedAO= T EigKep=  4.22D-03  NBF=   106
 NBsUse=   106 1.00D-06 EigRej= -1.00D+00 NBFU=   106
 ExpMin= 1.61D-01 ExpMax= 5.48D+03 ExpMxC= 8.25D+02 IAcc=3 IRadAn=         5 AccDes= 0.00D+00
 Harris functional with IExCor=  402 and IRadAn=       5 diagonalized for initial guess.
 HarFok:  IExCor=  402 AccDes= 0.00D+00 IRadAn=         5 IDoV= 1 UseB2=F ITyADJ=14
 ICtDFT=  3500011 ScaDFX=  1.000000  1.000000  1.000000  1.000000
 FoFCou: FMM=F IPFlag=           0 FMFlag=      100000 FMFlg1=           0
         NFxFlg=           0 DoJE=T BraDBF=F KetDBF=T FulRan=T
         wScrn=  0.000000 ICntrl=       500 IOpCl=  0 I1Cent=   200000004 NGrid=           0
         NMat0=    1 NMatS0=      1 NMatT0=    0 NMatD0=    1 NMtDS0=    0 NMtDT0=    0
 Symmetry not used in FoFCou.
 Requested convergence on RMS density matrix=1.00D-08 within 128 cycles.
 Requested convergence on MAX density matrix=1.00D-06.
 Requested convergence on             energy=1.00D-06.
 No special actions if energy rises.
 Integral accuracy reduced to 1.0D-05 until final iterations.
 Initial convergence to 1.0D-05 achieved.  Increase integral accuracy.
 SCF Done:  E(RB3LYP) =  -270.461121387     A.U. after   14 cycles
            NFock= 14  Conv=0.53D-08     -V/T= 2.0096
 DoSCS=F DFT=T ScalE2(SS,OS)=  1.000000  1.000000
 Range of M.O.s used for correlation:     1   106
 NBasis=   106 NAE=    23 NBE=    23 NFC=     0 NFV=     0
 NROrb=    106 NOA=    23 NOB=    23 NVA=    83 NVB=    83
 Symmetrizing basis deriv contribution to polar:
 IMax=3 JMax=2 DiffMx= 0.00D+00
 G2DrvN: will do    15 centers at a time, making    1 passes.
 Calling FoFCou, ICntrl=  3107 FMM=F I1Cent=   0 AccDes= 0.00D+00.
 End of G2Drv F.D. properties file   721 does not exist.
 End of G2Drv F.D. properties file   722 does not exist.
 End of G2Drv F.D. properties file   788 does not exist.
          IDoAtm=11111111111111
          Differentiating once with respect to nuclear coordinates.
 Keep R1 ints in memory in canonical form, NReq=38354418.
          There are    45 degrees of freedom in the 1st order CPHF.  IDoFFX=6 NUNeed=     0.
     39 vectors produced by pass  0 Test12= 4.24D-15 2.22D-09 XBig12= 1.11D-01 1.26D-01.
 AX will form    39 AO Fock derivatives at one time.
     39 vectors produced by pass  1 Test12= 4.24D-15 2.22D-09 XBig12= 1.12D-02 3.45D-02.
     39 vectors produced by pass  2 Test12= 4.24D-15 2.22D-09 XBig12= 1.22D-04 2.15D-03.
     39 vectors produced by pass  3 Test12= 4.24D-15 2.22D-09 XBig12= 2.89D-07 9.61D-05.
     39 vectors produced by pass  4 Test12= 4.24D-15 2.22D-09 XBig12= 2.73D-10 1.85D-06.
     22 vectors produced by pass  5 Test12= 4.24D-15 2.22D-09 XBig12= 1.65D-13 6.73D-08.
 InvSVY:  IOpt=1 It=  1 EMax= 2.66D-15
 Solved reduced A of dimension   217 with    39 vectors.
 End of Minotr F.D. properties file   721 does not exist.
 End of Minotr F.D. properties file   722 does not exist.
 End of Minotr F.D. properties file   788 does not exist.

 **********************************************************************

            Population analysis using the SCF Density.

 **********************************************************************

 Alpha  occ. eigenvalues --  -19.13400 -10.22917 -10.22252 -10.21110 -10.18645
 Alpha  occ. eigenvalues --  -10.18425  -1.00187  -0.79743  -0.73271  -0.67404
 Alpha  occ. eigenvalues --   -0.56854  -0.55476  -0.48640  -0.46006  -0.44252
 Alpha  occ. eigenvalues --   -0.43137  -0.39563  -0.38592  -0.37046  -0.36558
 Alpha  occ. eigenvalues --   -0.27175  -0.25233  -0.22261
 Alpha virt. eigenvalues --   -0.02719   0.01061   0.09107   0.10848   0.11810
 Alpha virt. eigenvalues --    0.13458   0.14677   0.16843   0.18231   0.18857
 Alpha virt. eigenvalues --    0.20706   0.30026   0.30452   0.33869   0.35125
 Alpha virt. eigenvalues --    0.49192   0.51011   0.52411   0.55758   0.56818
 Alpha virt. eigenvalues --    0.58848   0.59937   0.62872   0.64196   0.66622
 Alpha virt. eigenvalues --    0.67143   0.74388   0.77633   0.81493   0.83069
 Alpha virt. eigenvalues --    0.84561   0.85744   0.88128   0.88506   0.91466
 Alpha virt. eigenvalues --    0.94124   0.94686   0.99654   1.02710   1.09300
 Alpha virt. eigenvalues --    1.15042   1.18829   1.22140   1.27074   1.31806
 Alpha virt. eigenvalues --    1.38853   1.46563   1.49696   1.53192   1.58743
 Alpha virt. eigenvalues --    1.65590   1.68331   1.71743   1.75539   1.80586
 Alpha virt. eigenvalues --    1.87034   1.91146   1.99463   1.99713   2.01715
 Alpha virt. eigenvalues --    2.06038   2.07543   2.19073   2.21622   2.26147
 Alpha virt. eigenvalues --    2.26607   2.31174   2.34894   2.40608   2.50831
 Alpha virt. eigenvalues --    2.58560   2.62393   2.67762   2.77421   2.85732
 Alpha virt. eigenvalues --    2.86913   2.99214   3.93080   4.16902   4.22796
 Alpha virt. eigenvalues --    4.29458   4.39744   4.43904
          Condensed to atoms (all electrons):
               1          2          3          4          5          6
     1  C    5.281405   0.510528  -0.062726  -0.018889  -0.028021   0.090581
     2  C    0.510528   4.635205   0.408831  -0.032279  -0.025676  -0.006763
     3  O   -0.062726   0.408831   8.156709   0.087146  -0.035678  -0.017601
     4  C   -0.018889  -0.032279   0.087146   5.003515   0.525478  -0.040272
     5  C   -0.028021  -0.025676  -0.035678   0.525478   4.801630   0.561722
     6  C    0.090581  -0.006763  -0.017601  -0.040272   0.561722   5.069396
     7  H    0.332203  -0.016457   0.003484   0.000398   0.001322  -0.003442
     8  H    0.359079  -0.025453   0.000846  -0.000470  -0.002686  -0.007652
     9  H   -0.102813   0.358177  -0.055078  -0.002949   0.000173  -0.002948
    10  H    0.000195   0.001413  -0.009966   0.369734  -0.026645   0.005112
    11  H   -0.000234  -0.003542  -0.018823   0.368046  -0.037954  -0.010049
    12  H   -0.000760  -0.000175   0.000368  -0.048163   0.378078  -0.051145
    13  H   -0.003261   0.000324   0.000188   0.005056  -0.027190   0.365283
    14  H   -0.010594  -0.003680  -0.000217  -0.007876  -0.035055   0.371334
               7          8          9         10         11         12
     1  C    0.332203   0.359079  -0.102813   0.000195  -0.000234  -0.000760
     2  C   -0.016457  -0.025453   0.358177   0.001413  -0.003542  -0.000175
     3  O    0.003484   0.000846  -0.055078  -0.009966  -0.018823   0.000368
     4  C    0.000398  -0.000470  -0.002949   0.369734   0.368046  -0.048163
     5  C    0.001322  -0.002686   0.000173  -0.026645  -0.037954   0.378078
     6  C   -0.003442  -0.007652  -0.002948   0.005112  -0.010049  -0.051145
     7  H    0.576864  -0.035764   0.001440   0.000001   0.000016  -0.000001
     8  H   -0.035764   0.543008   0.006084  -0.000043   0.000111   0.001155
     9  H    0.001440   0.006084   0.701587  -0.000066   0.002902   0.000036
    10  H    0.000001  -0.000043  -0.000066   0.532654  -0.036905  -0.006206
    11  H    0.000016   0.000111   0.002902  -0.036905   0.560444   0.005235
    12  H   -0.000001   0.001155   0.000036  -0.006206   0.005235   0.589973
    13  H   -0.000105  -0.001212  -0.000019  -0.000183  -0.000031  -0.006288
    14  H   -0.000136   0.001016   0.001615  -0.000014   0.005536   0.005259
              13         14
     1  C   -0.003261  -0.010594
     2  C    0.000324  -0.003680
     3  O    0.000188  -0.000217
     4  C    0.005056  -0.007876
     5  C   -0.027190  -0.035055
     6  C    0.365283   0.371334
     7  H   -0.000105  -0.000136
     8  H   -0.001212   0.001016
     9  H   -0.000019   0.001615
    10  H   -0.000183  -0.000014
    11  H   -0.000031   0.005536
    12  H   -0.006288   0.005259
    13  H    0.546001  -0.039967
    14  H   -0.039967   0.550843
 Mulliken charges:
               1
     1  C   -0.346694
     2  C    0.199545
     3  O   -0.457485
     4  C   -0.208473
     5  C   -0.049498
     6  C   -0.323556
     7  H    0.140176
     8  H    0.161982
     9  H    0.091859
    10  H    0.170919
    11  H    0.165249
    12  H    0.132635
    13  H    0.161403
    14  H    0.161937
 Sum of Mulliken charges =  -0.00000
 Mulliken charges with hydrogens summed into heavy atoms:
               1
     1  C   -0.044535
     2  C    0.291404
     3  O   -0.457485
     4  C    0.127695
     5  C    0.083137
     6  C   -0.000216
 APT charges:
               1
     1  C   -0.777164
     2  C   -0.268284
     3  O   -0.395722
     4  C   -0.770450
     5  C   -0.425616
     6  C   -0.850030
     7  H    0.508078
     8  H    0.357814
     9  H    0.372150
    10  H    0.541307
    11  H    0.379351
    12  H    0.434941
    13  H    0.525073
    14  H    0.368551
 Sum of APT charges =  -0.00000
 APT charges with hydrogens summed into heavy atoms:
               1
     1  C    0.088728
     2  C    0.103867
     3  O   -0.395722
     4  C    0.150207
     5  C    0.009325
     6  C    0.043595
 Electronic spatial extent (au):  <R**2>=            548.3713
 Charge=             -0.0000 electrons
 Dipole moment (field-independent basis, Debye):
    X=              0.7197    Y=              1.8014    Z=              0.8009  Tot=              2.0987
 Quadrupole moment (field-independent basis, Debye-Ang):
   XX=            -36.6360   YY=            -37.0218   ZZ=            -34.7718
   XY=             -3.1070   XZ=             -1.5681   YZ=             -1.4287
 Traceless Quadrupole moment (field-independent basis, Debye-Ang):
   XX=             -0.4928   YY=             -0.8786   ZZ=              1.3714
   XY=             -3.1070   XZ=             -1.5681   YZ=             -1.4287
 Octapole moment (field-independent basis, Debye-Ang**2):
  XXX=             -4.4802  YYY=              2.4552  ZZZ=             -0.3663  XYY=              3.2433
  XXY=             -4.2960  XXZ=             -0.7838  XZZ=              0.6823  YZZ=             -0.9199
  YYZ=              0.1002  XYZ=              0.2923
 Hexadecapole moment (field-independent basis, Debye-Ang**3):
 XXXX=           -373.9327 YYYY=           -276.3888 ZZZZ=            -81.9064 XXXY=             -9.1039
 XXXZ=             -8.3058 YYYX=             -5.8329 YYYZ=             -0.3664 ZZZX=             -0.2043
 ZZZY=             -0.9906 XXYY=           -101.7391 XXZZ=            -71.9656 YYZZ=            -60.0015
 XXYZ=              0.0036 YYXZ=             -2.7414 ZZXY=             -0.2212
 N-N= 2.297151886868D+02 E-N=-1.088634775111D+03  KE= 2.678972947902D+02
  Exact polarizability:   0.000   0.000   0.000   0.000   0.000   0.000
 Approx polarizability: 120.556  -8.605 117.543  -5.438  -0.911  70.023
 Calling FoFJK, ICntrl=    100147 FMM=F ISym2X=0 I1Cent= 0 IOpClX= 0 NMat=1 NMatS=1 NMatT=0.
 -------------------------------------------------------------------
 Center     Atomic                   Forces (Hartrees/Bohr)
 Number     Number              X              Y              Z
 -------------------------------------------------------------------
      1        6           0.000018481   -0.000054342    0.000033854
      2        6          -0.000060467    0.000048677   -0.000016145
      3        8          -0.000020078   -0.000013721   -0.000009438
      4        6           0.000011477    0.000042946    0.000009057
      5        6           0.000022352   -0.000006099   -0.000008044
      6        6           0.000001657    0.000021689   -0.000014824
      7        1          -0.000005804   -0.000000440    0.000002209
      8        1           0.000000110    0.000004236   -0.000016175
      9        1          -0.000004960    0.000003678   -0.000008292
     10        1           0.000008592   -0.000010068    0.000001710
     11        1           0.000017029   -0.000015121    0.000012765
     12        1           0.000002916   -0.000002702   -0.000000972
     13        1          -0.000012664    0.000000233   -0.000001387
     14        1           0.000021358   -0.000018967    0.000015684
 -------------------------------------------------------------------
 Cartesian Forces:  Max     0.000060467 RMS     0.000020287
 IRC-IRC-IRC-IRC-IRC-IRC-IRC-IRC-IRC-IRC-IRC-IRC-IRC-IRC-IRC-IRC-IRC-IRC
          ******** Start new reaction path calculation ********
 Supplied step size of   0.1000 bohr.
    Integration on MW PES will use step size of   0.2992 sqrt(amu)*bohr.
 Point Number:   0          Path Number:   1
 Calculating another point on the path.
 IRC-IRC-IRC-IRC-IRC-IRC-IRC-IRC-IRC-IRC-IRC-IRC-IRC-IRC-IRC-IRC-IRC-IRC
                          Input orientation:                          
 ---------------------------------------------------------------------
 Center     Atomic      Atomic             Coordinates (Angstroms)
 Number     Number       Type             X           Y           Z
 ---------------------------------------------------------------------
      1          6           0       -1.476351    0.814828   -0.282173
      2          6           0       -1.283096   -0.428591    0.273814
      3          8           0       -0.484900   -1.314430   -0.238045
      4          6           0        1.268648   -0.867477    0.189732
      5          6           0        1.381606    0.455241   -0.290322
      6          6           0        0.696185    1.469469    0.337101
      7          1           0       -2.156064    1.522564    0.186594
      8          1           0       -1.214001    0.996092   -1.318026
      9          1           0       -1.667459   -0.609860    1.291608
     10          1           0        1.758911   -1.675619   -0.342997
     11          1           0        1.183407   -1.030125    1.260933
     12          1           0        1.701670    0.597228   -1.320772
     13          1           0        0.649232    2.468020   -0.088591
     14          1           0        0.450812    1.405518    1.392628
 ---------------------------------------------------------------------
                    Distance matrix (angstroms):
                    1          2          3          4          5
     1  C    0.000000
     2  C    1.375704   0.000000
     3  O    2.349184   1.297624   0.000000
     4  C    3.253900   2.590577   1.859487   0.000000
     5  C    2.880501   2.863572   2.572608   1.411664   0.000000
     6  C    2.352014   2.743026   3.078287   2.410549   1.375543
     7  H    1.087494   2.139319   3.319886   4.176237   3.725820
     8  H    1.083825   2.137393   2.652633   3.451054   2.843566
     9  H    2.131442   1.102950   2.057839   3.146621   3.596351
    10  H    4.083253   3.345048   2.275118   1.085013   2.164647
    11  H    3.585992   2.723947   2.260755   1.086826   2.156846
    12  H    3.350501   3.536077   3.099650   2.148138   1.088315
    13  H    2.699744   3.500798   3.951648   3.403922   2.151360
    14  H    2.620655   2.760823   3.306474   2.698577   2.145163
                    6          7          8          9         10
     6  C    0.000000
     7  H    2.856711   0.000000
     8  H    2.571448   1.851631   0.000000
     9  H    3.289605   2.450922   3.097563   0.000000
    10  H    3.388731   5.082900   4.114235   3.943069   0.000000
    11  H    2.709025   4.338489   4.062530   2.881840   1.822212
    12  H    2.126111   4.243880   2.942828   4.430872   2.474906
    13  H    1.086519   2.973095   2.673896   4.092108   4.297192
    14  H    1.085557   2.874721   3.207317   2.925582   3.770534
                   11         12         13         14
    11  H    0.000000
    12  H    3.095493   0.000000
    13  H    3.787291   2.475027   0.000000
    14  H    2.546840   3.095242   1.833655   0.000000
 Symmetry turned off by external request.
 Stoichiometry    C5H8O
 Framework group  C1[X(C5H8O)]
 Deg. of freedom    36
 Full point group                 C1      NOp   1
 Rotational constants (GHZ):           4.8168916           3.8855081           2.4514551
 Standard basis: 6-31G(d) (6D, 7F)
   106 basis functions,   200 primitive gaussians,   106 cartesian basis functions
    23 alpha electrons       23 beta electrons
       nuclear repulsion energy       229.8632592026 Hartrees.
 NAtoms=   14 NActive=   14 NUniq=   14 SFac= 1.00D+00 NAtFMM=   60 NAOKFM=F Big=F
 Integral buffers will be    131072 words long.
 Raffenetti 2 integral format.
 Two-electron integral symmetry is turned off.
 One-electron integrals computed using PRISM.
 NBasis=   106 RedAO= T EigKep=  4.23D-03  NBF=   106
 NBsUse=   106 1.00D-06 EigRej= -1.00D+00 NBFU=   106
 Initial guess from the checkpoint file:  "claisen_ts_IRCF.chk"
 B after Tr=     0.014348    0.074734    0.021606
         Rot=    1.000000   -0.000057    0.000033    0.000019 Ang=  -0.01 deg.
 ExpMin= 1.61D-01 ExpMax= 5.48D+03 ExpMxC= 8.25D+02 IAcc=3 IRadAn=         5 AccDes= 0.00D+00
 Harris functional with IExCor=  402 and IRadAn=       5 diagonalized for initial guess.
 HarFok:  IExCor=  402 AccDes= 0.00D+00 IRadAn=         5 IDoV= 1 UseB2=F ITyADJ=14
 ICtDFT=  3500011 ScaDFX=  1.000000  1.000000  1.000000  1.000000
 FoFCou: FMM=F IPFlag=           0 FMFlag=      100000 FMFlg1=           0
         NFxFlg=           0 DoJE=T BraDBF=F KetDBF=T FulRan=T
         wScrn=  0.000000 ICntrl=       500 IOpCl=  0 I1Cent=   200000004 NGrid=           0
         NMat0=    1 NMatS0=      1 NMatT0=    0 NMatD0=    1 NMtDS0=    0 NMtDT0=    0
 Symmetry not used in FoFCou.
 Requested convergence on RMS density matrix=1.00D-08 within 128 cycles.
 Requested convergence on MAX density matrix=1.00D-06.
 Requested convergence on             energy=1.00D-06.
 No special actions if energy rises.
 Integral accuracy reduced to 1.0D-05 until final iterations.
 Initial convergence to 1.0D-05 achieved.  Increase integral accuracy.
 SCF Done:  E(RB3LYP) =  -270.461512906     A.U. after   13 cycles
            NFock= 13  Conv=0.62D-08     -V/T= 2.0096
 DoSCS=F DFT=T ScalE2(SS,OS)=  1.000000  1.000000
 Range of M.O.s used for correlation:     1   106
 NBasis=   106 NAE=    23 NBE=    23 NFC=     0 NFV=     0
 NROrb=    106 NOA=    23 NOB=    23 NVA=    83 NVB=    83
 Symmetrizing basis deriv contribution to polar:
 IMax=3 JMax=2 DiffMx= 0.00D+00
 Calling FoFJK, ICntrl=      2147 FMM=F ISym2X=0 I1Cent= 0 IOpClX= 0 NMat=1 NMatS=1 NMatT=0.
 -------------------------------------------------------------------
 Center     Atomic                   Forces (Hartrees/Bohr)
 Number     Number              X              Y              Z
 -------------------------------------------------------------------
      1        6          -0.003196632   -0.001710984   -0.000855747
      2        6          -0.000074538    0.000826615    0.000229979
      3        8           0.005056428    0.001144686    0.000721509
      4        6          -0.005122628   -0.001437273   -0.000589141
      5        6          -0.000147314    0.000457979   -0.000117340
      6        6           0.003605940    0.000957976    0.000787617
      7        1          -0.000333414   -0.000184949   -0.000069239
      8        1          -0.000016178    0.000032578    0.000219061
      9        1           0.000001218   -0.000094778   -0.000058791
     10        1          -0.000188213   -0.000035411    0.000006789
     11        1           0.000070122   -0.000003442   -0.000174877
     12        1           0.000055224    0.000010884    0.000009468
     13        1           0.000268688    0.000070650    0.000053337
     14        1           0.000021297   -0.000034532   -0.000162625
 -------------------------------------------------------------------
 Cartesian Forces:  Max     0.005122628 RMS     0.001429736
 IRC-IRC-IRC-IRC-IRC-IRC-IRC-IRC-IRC-IRC-IRC-IRC-IRC-IRC-IRC-IRC-IRC-IRC
 Pt  1 Step number   1 out of a maximum of 200
 Modified Bulirsch-Stoer Extrapolation Cycles:
    EPS =    0.000010000000000
      PEZero:  N= 2 I= 1 D=  7.79D-04 Err=  1.31D-03
      PEZero:  N= 3 I= 2 D=  7.79D-04 Err=  8.71D-04
      PEZero:  N= 3 I= 1 D=  1.56D-03 Err=  3.25D-07
 Maximum DWI energy   std dev =  0.000000566 at pt     1
 Maximum DWI gradient std dev =  0.074526380 at pt     2
 CORRECTOR INTEGRATION CONVERGENCE:
   Recorrection delta-x convergence threshold:    0.010000
   Delta-x Convergence Met
 Point Number:   1          Path Number:   1
   CHANGE IN THE REACTION COORDINATE =    0.29909
   NET REACTION COORDINATE UP TO THIS POINT =    0.29909
  # OF POINTS ALONG THE PATH =   1
  # OF STEPS =   1

 Calculating another point on the path.
 IRC-IRC-IRC-IRC-IRC-IRC-IRC-IRC-IRC-IRC-IRC-IRC-IRC-IRC-IRC-IRC-IRC-IRC
                          Input orientation:                          
 ---------------------------------------------------------------------
 Center     Atomic      Atomic             Coordinates (Angstroms)
 Number     Number       Type             X           Y           Z
 ---------------------------------------------------------------------
      1          6           0       -1.492843    0.806199   -0.285439
      2          6           0       -1.282976   -0.424902    0.274432
      3          8           0       -0.465812   -1.309910   -0.235134
      4          6           0        1.243007   -0.874587    0.185800
      5          6           0        1.380499    0.457935   -0.290491
      6          6           0        0.714898    1.473902    0.340149
      7          1           0       -2.174386    1.512311    0.182695
      8          1           0       -1.210351    0.999087   -1.313911
      9          1           0       -1.667366   -0.614515    1.289247
     10          1           0        1.744733   -1.678558   -0.343602
     11          1           0        1.185086   -1.030699    1.260918
     12          1           0        1.704213    0.597758   -1.320067
     13          1           0        0.663394    2.471942   -0.086253
     14          1           0        0.448561    1.403162    1.390165
 ---------------------------------------------------------------------
                    Distance matrix (angstroms):
                    1          2          3          4          5
     1  C    0.000000
     2  C    1.368616   0.000000
     3  O    2.352709   1.307919   0.000000
     4  C    3.245301   2.567229   1.812940   0.000000
     5  C    2.894375   2.862279   2.556796   1.421750   0.000000
     6  C    2.389834   2.757041   3.078090   2.412079   1.368547
     7  H    1.087311   2.134437   3.325468   4.168437   3.738024
     8  H    1.083865   2.134445   2.655102   3.432019   2.837735
     9  H    2.128032   1.101616   2.061806   3.123380   3.596554
    10  H    4.081581   3.334763   2.243697   1.085525   2.167969
    11  H    3.596764   2.726073   2.245349   1.087936   2.158955
    12  H    3.366759   3.537168   3.086306   2.155956   1.088287
    13  H    2.731983   3.508583   3.949642   3.407231   2.147598
    14  H    2.633071   2.754069   3.292177   2.696253   2.141627
                    6          7          8          9         10
     6  C    0.000000
     7  H    2.893826   0.000000
     8  H    2.582238   1.852726   0.000000
     9  H    3.307182   2.450492   3.096612   0.000000
    10  H    3.386160   5.081154   4.104121   3.929479   0.000000
    11  H    2.709597   4.349197   4.060529   2.882793   1.818628
    12  H    2.121954   4.258900   2.942072   4.432344   2.477245
    13  H    1.086534   3.007693   2.680927   4.104955   4.296764
    14  H    1.085575   2.889593   3.198015   2.925466   3.766033
                   11         12         13         14
    11  H    0.000000
    12  H    3.095617   0.000000
    13  H    3.788869   2.473493   0.000000
    14  H    2.546144   3.093653   1.835281   0.000000
 Symmetry turned off by external request.
 Stoichiometry    C5H8O
 Framework group  C1[X(C5H8O)]
 Deg. of freedom    36
 Full point group                 C1      NOp   1
 Rotational constants (GHZ):           4.8223593           3.8889504           2.4538903
 Standard basis: 6-31G(d) (6D, 7F)
   106 basis functions,   200 primitive gaussians,   106 cartesian basis functions
    23 alpha electrons       23 beta electrons
       nuclear repulsion energy       230.0494825317 Hartrees.
 NAtoms=   14 NActive=   14 NUniq=   14 SFac= 1.00D+00 NAtFMM=   60 NAOKFM=F Big=F
 Integral buffers will be    131072 words long.
 Raffenetti 2 integral format.
 Two-electron integral symmetry is turned off.
 One-electron integrals computed using PRISM.
 NBasis=   106 RedAO= T EigKep=  4.25D-03  NBF=   106
 NBsUse=   106 1.00D-06 EigRej= -1.00D+00 NBFU=   106
 Initial guess from the checkpoint file:  "claisen_ts_IRCF.chk"
 B after Tr=    -0.000262   -0.000271   -0.000058
         Rot=    1.000000   -0.000075    0.000055    0.000021 Ang=  -0.01 deg.
 ExpMin= 1.61D-01 ExpMax= 5.48D+03 ExpMxC= 8.25D+02 IAcc=3 IRadAn=         5 AccDes= 0.00D+00
 Harris functional with IExCor=  402 and IRadAn=       5 diagonalized for initial guess.
 HarFok:  IExCor=  402 AccDes= 0.00D+00 IRadAn=         5 IDoV= 1 UseB2=F ITyADJ=14
 ICtDFT=  3500011 ScaDFX=  1.000000  1.000000  1.000000  1.000000
 FoFCou: FMM=F IPFlag=           0 FMFlag=      100000 FMFlg1=           0
         NFxFlg=           0 DoJE=T BraDBF=F KetDBF=T FulRan=T
         wScrn=  0.000000 ICntrl=       500 IOpCl=  0 I1Cent=   200000004 NGrid=           0
         NMat0=    1 NMatS0=      1 NMatT0=    0 NMatD0=    1 NMtDS0=    0 NMtDT0=    0
 Symmetry not used in FoFCou.
 Requested convergence on RMS density matrix=1.00D-08 within 128 cycles.
 Requested convergence on MAX density matrix=1.00D-06.
 Requested convergence on             energy=1.00D-06.
 No special actions if energy rises.
 Integral accuracy reduced to 1.0D-05 until final iterations.
 Initial convergence to 1.0D-05 achieved.  Increase integral accuracy.
 SCF Done:  E(RB3LYP) =  -270.462672883     A.U. after   13 cycles
            NFock= 13  Conv=0.50D-08     -V/T= 2.0096
 DoSCS=F DFT=T ScalE2(SS,OS)=  1.000000  1.000000
 Range of M.O.s used for correlation:     1   106
 NBasis=   106 NAE=    23 NBE=    23 NFC=     0 NFV=     0
 NROrb=    106 NOA=    23 NOB=    23 NVA=    83 NVB=    83
 Symmetrizing basis deriv contribution to polar:
 IMax=3 JMax=2 DiffMx= 0.00D+00
 Calling FoFJK, ICntrl=      2147 FMM=F ISym2X=0 I1Cent= 0 IOpClX= 0 NMat=1 NMatS=1 NMatT=0.
 -------------------------------------------------------------------
 Center     Atomic                   Forces (Hartrees/Bohr)
 Number     Number              X              Y              Z
 -------------------------------------------------------------------
      1        6          -0.006030611   -0.003090587   -0.001670803
      2        6           0.000058137    0.001344776    0.000499820
      3        8           0.010035868    0.002391179    0.001519870
      4        6          -0.010171592   -0.002906343   -0.001224316
      5        6          -0.000418777    0.000780850   -0.000245534
      6        6           0.006803829    0.001835462    0.001501075
      7        1          -0.000628952   -0.000371240   -0.000144460
      8        1          -0.000030350    0.000061769    0.000449778
      9        1          -0.000000033   -0.000216705   -0.000112782
     10        1          -0.000384849   -0.000022458    0.000025684
     11        1           0.000072654    0.000024906   -0.000393329
     12        1           0.000122070    0.000022286    0.000029120
     13        1           0.000579374    0.000162445    0.000113149
     14        1          -0.000006769   -0.000016339   -0.000347273
 -------------------------------------------------------------------
 Cartesian Forces:  Max     0.010171592 RMS     0.002791693
 IRC-IRC-IRC-IRC-IRC-IRC-IRC-IRC-IRC-IRC-IRC-IRC-IRC-IRC-IRC-IRC-IRC-IRC
 Pt  2 Step number   1 out of a maximum of 200
 Modified Bulirsch-Stoer Extrapolation Cycles:
    EPS =    0.000010000000000
      PEZero:  N= 2 I= 1 D=  1.56D-03 Err=  3.76D-05
      PEZero:  N= 3 I= 2 D=  1.56D-03 Err=  2.51D-05
      PEZero:  N= 3 I= 1 D=  3.12D-03 Err=  1.10D-07
 Maximum DWI energy   std dev =  0.000001776 at pt    31
 Maximum DWI gradient std dev =  0.050372159 at pt    55
 CORRECTOR INTEGRATION CONVERGENCE:
   Recorrection delta-x convergence threshold:    0.010000
   Delta-x Convergence Met
 Point Number:   2          Path Number:   1
   CHANGE IN THE REACTION COORDINATE =    0.29901
   NET REACTION COORDINATE UP TO THIS POINT =    0.59810
  # OF POINTS ALONG THE PATH =   2
  # OF STEPS =   1

 Calculating another point on the path.
 IRC-IRC-IRC-IRC-IRC-IRC-IRC-IRC-IRC-IRC-IRC-IRC-IRC-IRC-IRC-IRC-IRC-IRC
                          Input orientation:                          
 ---------------------------------------------------------------------
 Center     Atomic      Atomic             Coordinates (Angstroms)
 Number     Number       Type             X           Y           Z
 ---------------------------------------------------------------------
      1          6           0       -1.508324    0.798007   -0.288532
      2          6           0       -1.282647   -0.421432    0.275323
      3          8           0       -0.446233   -1.305195   -0.232117
      4          6           0        1.216665   -0.881924    0.181683
      5          6           0        1.379051    0.460283   -0.290794
      6          6           0        0.732608    1.478418    0.342955
      7          1           0       -2.193495    1.501169    0.178434
      8          1           0       -1.207528    1.002156   -1.309325
      9          1           0       -1.667763   -0.620493    1.286592
     10          1           0        1.731746   -1.680921   -0.343706
     11          1           0        1.185584   -1.031410    1.259783
     12          1           0        1.708071    0.598370   -1.318918
     13          1           0        0.680533    2.476613   -0.083176
     14          1           0        0.445814    1.401601    1.386983
 ---------------------------------------------------------------------
                    Distance matrix (angstroms):
                    1          2          3          4          5
     1  C    0.000000
     2  C    1.362311   0.000000
     3  O    2.356836   1.318378   0.000000
     4  C    3.235558   2.543105   1.765112   0.000000
     5  C    2.907059   2.860515   2.540082   1.432174   0.000000
     6  C    2.425595   2.770425   3.077154   2.414857   1.362397
     7  H    1.087177   2.129654   3.331239   4.160329   3.750560
     8  H    1.083593   2.131514   2.657783   3.413147   2.832211
     9  H    2.125694   1.100275   2.065776   3.099854   3.597123
    10  H    4.079973   3.325068   2.212966   1.086158   2.170703
    11  H    3.605716   2.726426   2.227903   1.088859   2.160294
    12  H    3.383304   3.539208   3.073390   2.164383   1.088284
    13  H    2.766041   3.518702   3.948906   3.411357   2.143973
    14  H    2.643924   2.747147   3.277801   2.694707   2.138211
                    6          7          8          9         10
     6  C    0.000000
     7  H    2.930813   0.000000
     8  H    2.592486   1.853259   0.000000
     9  H    3.325306   2.450685   3.095737   0.000000
    10  H    3.383963   5.079946   4.095199   3.916509   0.000000
    11  H    2.710166   4.359065   4.057424   2.882908   1.814204
    12  H    2.118451   4.275433   2.943443   4.435151   2.479268
    13  H    1.086597   3.046304   2.691141   4.121022   4.296279
    14  H    1.085424   2.904558   3.187973   2.926799   3.761762
                   11         12         13         14
    11  H    0.000000
    12  H    3.094976   0.000000
    13  H    3.790098   2.471980   0.000000
    14  H    2.546171   3.091985   1.836331   0.000000
 Symmetry turned off by external request.
 Stoichiometry    C5H8O
 Framework group  C1[X(C5H8O)]
 Deg. of freedom    36
 Full point group                 C1      NOp   1
 Rotational constants (GHZ):           4.8276395           3.8937911           2.4566275
 Standard basis: 6-31G(d) (6D, 7F)
   106 basis functions,   200 primitive gaussians,   106 cartesian basis functions
    23 alpha electrons       23 beta electrons
       nuclear repulsion energy       230.2713814995 Hartrees.
 NAtoms=   14 NActive=   14 NUniq=   14 SFac= 1.00D+00 NAtFMM=   60 NAOKFM=F Big=F
 Integral buffers will be    131072 words long.
 Raffenetti 2 integral format.
 Two-electron integral symmetry is turned off.
 One-electron integrals computed using PRISM.
 NBasis=   106 RedAO= T EigKep=  4.28D-03  NBF=   106
 NBsUse=   106 1.00D-06 EigRej= -1.00D+00 NBFU=   106
 Initial guess from the checkpoint file:  "claisen_ts_IRCF.chk"
 B after Tr=    -0.000233   -0.000277   -0.000068
         Rot=    1.000000   -0.000085    0.000071    0.000018 Ang=  -0.01 deg.
 ExpMin= 1.61D-01 ExpMax= 5.48D+03 ExpMxC= 8.25D+02 IAcc=3 IRadAn=         5 AccDes= 0.00D+00
 Harris functional with IExCor=  402 and IRadAn=       5 diagonalized for initial guess.
 HarFok:  IExCor=  402 AccDes= 0.00D+00 IRadAn=         5 IDoV= 1 UseB2=F ITyADJ=14
 ICtDFT=  3500011 ScaDFX=  1.000000  1.000000  1.000000  1.000000
 FoFCou: FMM=F IPFlag=           0 FMFlag=      100000 FMFlg1=           0
         NFxFlg=           0 DoJE=T BraDBF=F KetDBF=T FulRan=T
         wScrn=  0.000000 ICntrl=       500 IOpCl=  0 I1Cent=   200000004 NGrid=           0
         NMat0=    1 NMatS0=      1 NMatT0=    0 NMatD0=    1 NMtDS0=    0 NMtDT0=    0
 Symmetry not used in FoFCou.
 Requested convergence on RMS density matrix=1.00D-08 within 128 cycles.
 Requested convergence on MAX density matrix=1.00D-06.
 Requested convergence on             energy=1.00D-06.
 No special actions if energy rises.
 Integral accuracy reduced to 1.0D-05 until final iterations.
 Initial convergence to 1.0D-05 achieved.  Increase integral accuracy.
 SCF Done:  E(RB3LYP) =  -270.464543637     A.U. after   12 cycles
            NFock= 12  Conv=0.89D-08     -V/T= 2.0096
 DoSCS=F DFT=T ScalE2(SS,OS)=  1.000000  1.000000
 Range of M.O.s used for correlation:     1   106
 NBasis=   106 NAE=    23 NBE=    23 NFC=     0 NFV=     0
 NROrb=    106 NOA=    23 NOB=    23 NVA=    83 NVB=    83
 Symmetrizing basis deriv contribution to polar:
 IMax=3 JMax=2 DiffMx= 0.00D+00
 Calling FoFJK, ICntrl=      2147 FMM=F ISym2X=0 I1Cent= 0 IOpClX= 0 NMat=1 NMatS=1 NMatT=0.
 -------------------------------------------------------------------
 Center     Atomic                   Forces (Hartrees/Bohr)
 Number     Number              X              Y              Z
 -------------------------------------------------------------------
      1        6          -0.008466222   -0.004394642   -0.002071021
      2        6           0.000263364    0.001697725    0.000636549
      3        8           0.014462569    0.003659491    0.002291364
      4        6          -0.014698947   -0.004125956   -0.002037225
      5        6          -0.000802775    0.001022270   -0.000302031
      6        6           0.009630997    0.002618422    0.001898818
      7        1          -0.000876957   -0.000545330   -0.000214162
      8        1           0.000024092    0.000121085    0.000459974
      9        1          -0.000014953   -0.000322228   -0.000166090
     10        1          -0.000576082   -0.000014938    0.000047152
     11        1           0.000045575    0.000018349   -0.000386187
     12        1           0.000204629    0.000018841    0.000064258
     13        1           0.000867398    0.000260258    0.000167435
     14        1          -0.000062688   -0.000013348   -0.000388835
 -------------------------------------------------------------------
 Cartesian Forces:  Max     0.014698947 RMS     0.003999052
 IRC-IRC-IRC-IRC-IRC-IRC-IRC-IRC-IRC-IRC-IRC-IRC-IRC-IRC-IRC-IRC-IRC-IRC
 Pt  3 Step number   1 out of a maximum of 200
 Modified Bulirsch-Stoer Extrapolation Cycles:
    EPS =    0.000010000000000
      PEZero:  N= 2 I= 1 D=  1.56D-03 Err=  2.79D-05
      PEZero:  N= 3 I= 2 D=  1.56D-03 Err=  1.86D-05
      PEZero:  N= 3 I= 1 D=  3.12D-03 Err=  8.34D-08
 Maximum DWI energy   std dev =  0.000003973 at pt    73
 Maximum DWI gradient std dev =  0.028260676 at pt    28
 CORRECTOR INTEGRATION CONVERGENCE:
   Recorrection delta-x convergence threshold:    0.010000
   Delta-x Convergence Met
 Point Number:   3          Path Number:   1
   CHANGE IN THE REACTION COORDINATE =    0.29905
   NET REACTION COORDINATE UP TO THIS POINT =    0.89715
  # OF POINTS ALONG THE PATH =   3
  # OF STEPS =   1

 Calculating another point on the path.
 IRC-IRC-IRC-IRC-IRC-IRC-IRC-IRC-IRC-IRC-IRC-IRC-IRC-IRC-IRC-IRC-IRC-IRC
                          Input orientation:                          
 ---------------------------------------------------------------------
 Center     Atomic      Atomic             Coordinates (Angstroms)
 Number     Number       Type             X           Y           Z
 ---------------------------------------------------------------------
      1          6           0       -1.523399    0.789951   -0.291575
      2          6           0       -1.282186   -0.418259    0.276313
      3          8           0       -0.426569   -1.300270   -0.229044
      4          6           0        1.190144   -0.889239    0.177507
      5          6           0        1.377358    0.462325   -0.291191
      6          6           0        0.749982    1.483078    0.345694
      7          1           0       -2.212884    1.489551    0.174048
      8          1           0       -1.205191    1.005348   -1.304573
      9          1           0       -1.668516   -0.627326    1.283685
     10          1           0        1.719378   -1.682810   -0.343491
     11          1           0        1.185414   -1.032031    1.258075
     12          1           0        1.712741    0.598805   -1.317492
     13          1           0        0.699550    2.481850   -0.079607
     14          1           0        0.443060    1.400675    1.383465
 ---------------------------------------------------------------------
                    Distance matrix (angstroms):
                    1          2          3          4          5
     1  C    0.000000
     2  C    1.356633   0.000000
     3  O    2.361349   1.328687   0.000000
     4  C    3.225373   2.518730   1.716972   0.000000
     5  C    2.919200   2.858437   2.522847   1.442724   0.000000
     6  C    2.460649   2.783811   3.075974   2.418660   1.356893
     7  H    1.087031   2.125182   3.337140   4.152018   3.763174
     8  H    1.083428   2.128799   2.660618   3.394650   2.826902
     9  H    2.123954   1.098981   2.069694   3.076389   3.597905
    10  H    4.078339   3.315515   2.182780   1.086868   2.172860
    11  H    3.613683   2.725734   2.209517   1.089973   2.161057
    12  H    3.400242   3.541783   3.060695   2.173109   1.088303
    13  H    2.801598   3.530522   3.949038   3.416289   2.140717
    14  H    2.654375   2.740581   3.263670   2.693729   2.134920
                    6          7          8          9         10
     6  C    0.000000
     7  H    2.967841   0.000000
     8  H    2.602750   1.853704   0.000000
     9  H    3.344064   2.451286   3.095057   0.000000
    10  H    3.381945   5.078820   4.086928   3.903790   0.000000
    11  H    2.710685   4.368286   4.053773   2.882596   1.809322
    12  H    2.115427   4.292861   2.946145   4.438741   2.480824
    13  H    1.086724   3.087275   2.703449   4.139236   4.295821
    14  H    1.085339   2.919697   3.177824   2.929420   3.757558
                   11         12         13         14
    11  H    0.000000
    12  H    3.093743   0.000000
    13  H    3.791150   2.470784   0.000000
    14  H    2.546541   3.090348   1.837201   0.000000
 Symmetry turned off by external request.
 Stoichiometry    C5H8O
 Framework group  C1[X(C5H8O)]
 Deg. of freedom    36
 Full point group                 C1      NOp   1
 Rotational constants (GHZ):           4.8331475           3.8981196           2.4591345
 Standard basis: 6-31G(d) (6D, 7F)
   106 basis functions,   200 primitive gaussians,   106 cartesian basis functions
    23 alpha electrons       23 beta electrons
       nuclear repulsion energy       230.5175809426 Hartrees.
 NAtoms=   14 NActive=   14 NUniq=   14 SFac= 1.00D+00 NAtFMM=   60 NAOKFM=F Big=F
 Integral buffers will be    131072 words long.
 Raffenetti 2 integral format.
 Two-electron integral symmetry is turned off.
 One-electron integrals computed using PRISM.
 NBasis=   106 RedAO= T EigKep=  4.31D-03  NBF=   106
 NBsUse=   106 1.00D-06 EigRej= -1.00D+00 NBFU=   106
 Initial guess from the checkpoint file:  "claisen_ts_IRCF.chk"
 B after Tr=    -0.000197   -0.000267   -0.000069
         Rot=    1.000000   -0.000089    0.000080    0.000017 Ang=  -0.01 deg.
 ExpMin= 1.61D-01 ExpMax= 5.48D+03 ExpMxC= 8.25D+02 IAcc=3 IRadAn=         5 AccDes= 0.00D+00
 Harris functional with IExCor=  402 and IRadAn=       5 diagonalized for initial guess.
 HarFok:  IExCor=  402 AccDes= 0.00D+00 IRadAn=         5 IDoV= 1 UseB2=F ITyADJ=14
 ICtDFT=  3500011 ScaDFX=  1.000000  1.000000  1.000000  1.000000
 FoFCou: FMM=F IPFlag=           0 FMFlag=      100000 FMFlg1=           0
         NFxFlg=           0 DoJE=T BraDBF=F KetDBF=T FulRan=T
         wScrn=  0.000000 ICntrl=       500 IOpCl=  0 I1Cent=   200000004 NGrid=           0
         NMat0=    1 NMatS0=      1 NMatT0=    0 NMatD0=    1 NMtDS0=    0 NMtDT0=    0
 Symmetry not used in FoFCou.
 Requested convergence on RMS density matrix=1.00D-08 within 128 cycles.
 Requested convergence on MAX density matrix=1.00D-06.
 Requested convergence on             energy=1.00D-06.
 No special actions if energy rises.
 Integral accuracy reduced to 1.0D-05 until final iterations.
 Initial convergence to 1.0D-05 achieved.  Increase integral accuracy.
 SCF Done:  E(RB3LYP) =  -270.467011376     A.U. after   12 cycles
            NFock= 12  Conv=0.78D-08     -V/T= 2.0096
 DoSCS=F DFT=T ScalE2(SS,OS)=  1.000000  1.000000
 Range of M.O.s used for correlation:     1   106
 NBasis=   106 NAE=    23 NBE=    23 NFC=     0 NFV=     0
 NROrb=    106 NOA=    23 NOB=    23 NVA=    83 NVB=    83
 Symmetrizing basis deriv contribution to polar:
 IMax=3 JMax=2 DiffMx= 0.00D+00
 Calling FoFJK, ICntrl=      2147 FMM=F ISym2X=0 I1Cent= 0 IOpClX= 0 NMat=1 NMatS=1 NMatT=0.
 -------------------------------------------------------------------
 Center     Atomic                   Forces (Hartrees/Bohr)
 Number     Number              X              Y              Z
 -------------------------------------------------------------------
      1        6          -0.010295745   -0.005395743   -0.002437586
      2        6           0.000516412    0.001780744    0.000765813
      3        8           0.017855156    0.004849470    0.002937515
      4        6          -0.018232152   -0.005005162   -0.002679811
      5        6          -0.001196191    0.001044308   -0.000392827
      6        6           0.011830596    0.003378091    0.002207792
      7        1          -0.001130106   -0.000722440   -0.000279602
      8        1           0.000019893    0.000154605    0.000508923
      9        1          -0.000037104   -0.000443861   -0.000218317
     10        1          -0.000718221   -0.000009198    0.000069112
     11        1          -0.000027761    0.000005917   -0.000396705
     12        1           0.000301249    0.000012754    0.000103970
     13        1           0.001200643    0.000339734    0.000244384
     14        1          -0.000086667    0.000010780   -0.000432661
 -------------------------------------------------------------------
 Cartesian Forces:  Max     0.018232152 RMS     0.004939161
 IRC-IRC-IRC-IRC-IRC-IRC-IRC-IRC-IRC-IRC-IRC-IRC-IRC-IRC-IRC-IRC-IRC-IRC
 Pt  4 Step number   1 out of a maximum of 200
 Modified Bulirsch-Stoer Extrapolation Cycles:
    EPS =    0.000010000000000
      PEZero:  N= 2 I= 1 D=  1.56D-03 Err=  3.01D-05
      PEZero:  N= 3 I= 2 D=  1.56D-03 Err=  2.00D-05
      PEZero:  N= 3 I= 1 D=  3.12D-03 Err=  6.98D-08
 Maximum DWI energy   std dev =  0.000007315 at pt    36
 Maximum DWI gradient std dev =  0.021457697 at pt    38
 CORRECTOR INTEGRATION CONVERGENCE:
   Recorrection delta-x convergence threshold:    0.010000
   Delta-x Convergence Met
 Point Number:   4          Path Number:   1
   CHANGE IN THE REACTION COORDINATE =    0.29906
   NET REACTION COORDINATE UP TO THIS POINT =    1.19621
  # OF POINTS ALONG THE PATH =   4
  # OF STEPS =   1

 Calculating another point on the path.
 IRC-IRC-IRC-IRC-IRC-IRC-IRC-IRC-IRC-IRC-IRC-IRC-IRC-IRC-IRC-IRC-IRC-IRC
                          Input orientation:                          
 ---------------------------------------------------------------------
 Center     Atomic      Atomic             Coordinates (Angstroms)
 Number     Number       Type             X           Y           Z
 ---------------------------------------------------------------------
      1          6           0       -1.538277    0.781952   -0.294625
      2          6           0       -1.281540   -0.415532    0.277382
      3          8           0       -0.407055   -1.295038   -0.225934
      4          6           0        1.163694   -0.896401    0.173323
      5          6           0        1.375432    0.463966   -0.291688
      6          6           0        0.767267    1.488011    0.348422
      7          1           0       -2.233450    1.476852    0.169312
      8          1           0       -1.203777    1.008482   -1.299695
      9          1           0       -1.669605   -0.635217    1.280504
     10          1           0        1.707306   -1.684348   -0.342981
     11          1           0        1.184036   -1.032614    1.255747
     12          1           0        1.718420    0.599015   -1.315719
     13          1           0        0.721411    2.487818   -0.075325
     14          1           0        0.440664    1.400522    1.379677
 ---------------------------------------------------------------------
                    Distance matrix (angstroms):
                    1          2          3          4          5
     1  C    0.000000
     2  C    1.351693   0.000000
     3  O    2.366066   1.338500   0.000000
     4  C    3.215041   2.494240   1.669003   0.000000
     5  C    2.931011   2.856021   2.505130   1.453157   0.000000
     6  C    2.495509   2.797522   3.074781   2.423475   1.352136
     7  H    1.086917   2.121067   3.342949   4.144024   3.776571
     8  H    1.083223   2.126272   2.663444   3.376874   2.822215
     9  H    2.122886   1.097775   2.073342   3.053137   3.598921
    10  H    4.076614   3.305744   2.153087   1.087633   2.174402
    11  H    3.620399   2.723427   2.189935   1.091151   2.161236
    12  H    3.417919   3.545001   3.048395   2.182025   1.088356
    13  H    2.839764   3.544807   3.950458   3.422043   2.137881
    14  H    2.664981   2.734793   3.250024   2.693309   2.131757
                    6          7          8          9         10
     6  C    0.000000
     7  H    3.006079   0.000000
     8  H    2.613667   1.854071   0.000000
     9  H    3.363810   2.452244   3.094538   0.000000
    10  H    3.380174   5.077912   4.079343   3.891003   0.000000
    11  H    2.711178   4.376868   4.049446   2.881285   1.804024
    12  H    2.112905   4.311982   2.950789   4.443243   2.481953
    13  H    1.086867   3.132588   2.719167   4.160358   4.295416
    14  H    1.085270   2.936273   3.168110   2.933820   3.753446
                   11         12         13         14
    11  H    0.000000
    12  H    3.091960   0.000000
    13  H    3.791994   2.469854   0.000000
    14  H    2.547177   3.088726   1.837951   0.000000
 Symmetry turned off by external request.
 Stoichiometry    C5H8O
 Framework group  C1[X(C5H8O)]
 Deg. of freedom    36
 Full point group                 C1      NOp   1
 Rotational constants (GHZ):           4.8392215           3.9009811           2.4611368
 Standard basis: 6-31G(d) (6D, 7F)
   106 basis functions,   200 primitive gaussians,   106 cartesian basis functions
    23 alpha electrons       23 beta electrons
       nuclear repulsion energy       230.7853143919 Hartrees.
 NAtoms=   14 NActive=   14 NUniq=   14 SFac= 1.00D+00 NAtFMM=   60 NAOKFM=F Big=F
 Integral buffers will be    131072 words long.
 Raffenetti 2 integral format.
 Two-electron integral symmetry is turned off.
 One-electron integrals computed using PRISM.
 NBasis=   106 RedAO= T EigKep=  4.34D-03  NBF=   106
 NBsUse=   106 1.00D-06 EigRej= -1.00D+00 NBFU=   106
 Initial guess from the checkpoint file:  "claisen_ts_IRCF.chk"
 B after Tr=    -0.000179   -0.000277   -0.000070
         Rot=    1.000000   -0.000095    0.000092    0.000019 Ang=  -0.02 deg.
 ExpMin= 1.61D-01 ExpMax= 5.48D+03 ExpMxC= 8.25D+02 IAcc=3 IRadAn=         5 AccDes= 0.00D+00
 Harris functional with IExCor=  402 and IRadAn=       5 diagonalized for initial guess.
 HarFok:  IExCor=  402 AccDes= 0.00D+00 IRadAn=         5 IDoV= 1 UseB2=F ITyADJ=14
 ICtDFT=  3500011 ScaDFX=  1.000000  1.000000  1.000000  1.000000
 FoFCou: FMM=F IPFlag=           0 FMFlag=      100000 FMFlg1=           0
         NFxFlg=           0 DoJE=T BraDBF=F KetDBF=T FulRan=T
         wScrn=  0.000000 ICntrl=       500 IOpCl=  0 I1Cent=   200000004 NGrid=           0
         NMat0=    1 NMatS0=      1 NMatT0=    0 NMatD0=    1 NMtDS0=    0 NMtDT0=    0
 Symmetry not used in FoFCou.
 Requested convergence on RMS density matrix=1.00D-08 within 128 cycles.
 Requested convergence on MAX density matrix=1.00D-06.
 Requested convergence on             energy=1.00D-06.
 No special actions if energy rises.
 Integral accuracy reduced to 1.0D-05 until final iterations.
 Initial convergence to 1.0D-05 achieved.  Increase integral accuracy.
 SCF Done:  E(RB3LYP) =  -270.469909304     A.U. after   12 cycles
            NFock= 12  Conv=0.66D-08     -V/T= 2.0096
 DoSCS=F DFT=T ScalE2(SS,OS)=  1.000000  1.000000
 Range of M.O.s used for correlation:     1   106
 NBasis=   106 NAE=    23 NBE=    23 NFC=     0 NFV=     0
 NROrb=    106 NOA=    23 NOB=    23 NVA=    83 NVB=    83
 Symmetrizing basis deriv contribution to polar:
 IMax=3 JMax=2 DiffMx= 0.00D+00
 G2DrvN: will do    15 centers at a time, making    1 passes.
 Calling FoFCou, ICntrl=  3107 FMM=F I1Cent=   0 AccDes= 0.00D+00.
 End of G2Drv F.D. properties file   721 does not exist.
 End of G2Drv F.D. properties file   722 does not exist.
 End of G2Drv F.D. properties file   788 does not exist.
          IDoAtm=11111111111111
          Differentiating once with respect to nuclear coordinates.
 Keep R1 ints in memory in canonical form, NReq=38354418.
          There are    45 degrees of freedom in the 1st order CPHF.  IDoFFX=6 NUNeed=     0.
     39 vectors produced by pass  0 Test12= 4.24D-15 2.22D-09 XBig12= 9.37D-02 1.15D-01.
 AX will form    39 AO Fock derivatives at one time.
     39 vectors produced by pass  1 Test12= 4.24D-15 2.22D-09 XBig12= 1.18D-02 2.29D-02.
     39 vectors produced by pass  2 Test12= 4.24D-15 2.22D-09 XBig12= 1.33D-04 2.36D-03.
     39 vectors produced by pass  3 Test12= 4.24D-15 2.22D-09 XBig12= 2.73D-07 1.13D-04.
     39 vectors produced by pass  4 Test12= 4.24D-15 2.22D-09 XBig12= 2.48D-10 2.08D-06.
     20 vectors produced by pass  5 Test12= 4.24D-15 2.22D-09 XBig12= 1.53D-13 4.60D-08.
 InvSVY:  IOpt=1 It=  1 EMax= 3.00D-15
 Solved reduced A of dimension   215 with    39 vectors.
 End of Minotr F.D. properties file   721 does not exist.
 End of Minotr F.D. properties file   722 does not exist.
 End of Minotr F.D. properties file   788 does not exist.
 Calling FoFJK, ICntrl=    100147 FMM=F ISym2X=0 I1Cent= 0 IOpClX= 0 NMat=1 NMatS=1 NMatT=0.
 -------------------------------------------------------------------
 Center     Atomic                   Forces (Hartrees/Bohr)
 Number     Number              X              Y              Z
 -------------------------------------------------------------------
      1        6          -0.011589176   -0.006166563   -0.002638163
      2        6           0.000753211    0.001627653    0.000839531
      3        8           0.019607612    0.005816405    0.003296715
      4        6          -0.020217068   -0.005396017   -0.003102145
      5        6          -0.001557796    0.000928476   -0.000463871
      6        6           0.013452723    0.003988175    0.002394497
      7        1          -0.001330088   -0.000892376   -0.000346167
      8        1          -0.000008615    0.000186454    0.000501944
      9        1          -0.000057644   -0.000556077   -0.000266967
     10        1          -0.000781079   -0.000001290    0.000090494
     11        1          -0.000112360   -0.000003407   -0.000336872
     12        1           0.000398058   -0.000009870    0.000150955
     13        1           0.001531546    0.000410883    0.000326071
     14        1          -0.000089323    0.000067554   -0.000446021
 -------------------------------------------------------------------
 Cartesian Forces:  Max     0.020217068 RMS     0.005505575
 IRC-IRC-IRC-IRC-IRC-IRC-IRC-IRC-IRC-IRC-IRC-IRC-IRC-IRC-IRC-IRC-IRC-IRC
 Pt  5 Step number   1 out of a maximum of 200
 Modified Bulirsch-Stoer Extrapolation Cycles:
    EPS =    0.000010000000000
      PEZero:  N= 2 I= 1 D=  1.56D-03 Err=  3.74D-05
      PEZero:  N= 3 I= 2 D=  1.56D-03 Err=  2.49D-05
      PEZero:  N= 3 I= 1 D=  3.12D-03 Err=  7.09D-08
 Maximum DWI energy   std dev =  0.000012587 at pt    65
 Maximum DWI gradient std dev =  0.011205799 at pt    33
 CORRECTOR INTEGRATION CONVERGENCE:
   Recorrection delta-x convergence threshold:    0.010000
   Delta-x Convergence Met
 Point Number:   5          Path Number:   1
   CHANGE IN THE REACTION COORDINATE =    0.29906
   NET REACTION COORDINATE UP TO THIS POINT =    1.49527
  # OF POINTS ALONG THE PATH =   5
  # OF STEPS =   1

 Calculating another point on the path.
 IRC-IRC-IRC-IRC-IRC-IRC-IRC-IRC-IRC-IRC-IRC-IRC-IRC-IRC-IRC-IRC-IRC-IRC
                          Input orientation:                          
 ---------------------------------------------------------------------
 Center     Atomic      Atomic             Coordinates (Angstroms)
 Number     Number       Type             X           Y           Z
 ---------------------------------------------------------------------
      1          6           0       -1.553453    0.773646   -0.297806
      2          6           0       -1.280670   -0.413427    0.278441
      3          8           0       -0.388205   -1.289346   -0.222867
      4          6           0        1.137770   -0.903155    0.169242
      5          6           0        1.373264    0.465160   -0.292245
      6          6           0        0.785087    1.493332    0.351274
      7          1           0       -2.255320    1.462778    0.164203
      8          1           0       -1.203466    1.011690   -1.294662
      9          1           0       -1.670960   -0.644282    1.276935
     10          1           0        1.695829   -1.685290   -0.342078
     11          1           0        1.181663   -1.032886    1.253105
     12          1           0        1.725200    0.598759   -1.313474
     13          1           0        0.746880    2.494582   -0.070187
     14          1           0        0.438752    1.401591    1.375568
 ---------------------------------------------------------------------
                    Distance matrix (angstroms):
                    1          2          3          4          5
     1  C    0.000000
     2  C    1.347446   0.000000
     3  O    2.370517   1.347233   0.000000
     4  C    3.205070   2.469942   1.622187   0.000000
     5  C    2.942935   2.853237   2.487142   1.463118   0.000000
     6  C    2.531407   2.812185   3.074011   2.429130   1.348037
     7  H    1.086726   2.117342   3.348153   4.136512   3.790806
     8  H    1.082995   2.124046   2.666114   3.360214   2.818346
     9  H    2.122296   1.096637   2.076288   3.030340   3.600068
    10  H    4.075066   3.295790   2.124660   1.088400   2.175079
    11  H    3.626257   2.719703   2.169966   1.092482   2.160777
    12  H    3.436820   3.548798   3.036584   2.190723   1.088401
    13  H    2.881834   3.562165   3.953459   3.428519   2.135467
    14  H    2.676448   2.730273   3.237281   2.693641   2.128806
                    6          7          8          9         10
     6  C    0.000000
     7  H    3.046310   0.000000
     8  H    2.625915   1.854229   0.000000
     9  H    3.385027   2.453438   3.094174   0.000000
    10  H    3.378435   5.077227   4.072718   3.878166   0.000000
    11  H    2.711521   4.384849   4.044781   2.879068   1.798502
    12  H    2.110795   4.332967   2.957694   4.448514   2.482207
    13  H    1.087011   3.183201   2.739007   4.184873   4.294853
    14  H    1.085146   2.954517   3.158960   2.940444   3.749585
                   11         12         13         14
    11  H    0.000000
    12  H    3.089503   0.000000
    13  H    3.792515   2.469214   0.000000
    14  H    2.548252   3.087140   1.838418   0.000000
 Symmetry turned off by external request.
 Stoichiometry    C5H8O
 Framework group  C1[X(C5H8O)]
 Deg. of freedom    36
 Full point group                 C1      NOp   1
 Rotational constants (GHZ):           4.8468531           3.9004914           2.4621728
 Standard basis: 6-31G(d) (6D, 7F)
   106 basis functions,   200 primitive gaussians,   106 cartesian basis functions
    23 alpha electrons       23 beta electrons
       nuclear repulsion energy       231.0691571834 Hartrees.
 NAtoms=   14 NActive=   14 NUniq=   14 SFac= 1.00D+00 NAtFMM=   60 NAOKFM=F Big=F
 Integral buffers will be    131072 words long.
 Raffenetti 2 integral format.
 Two-electron integral symmetry is turned off.
 One-electron integrals computed using PRISM.
 NBasis=   106 RedAO= T EigKep=  4.38D-03  NBF=   106
 NBsUse=   106 1.00D-06 EigRej= -1.00D+00 NBFU=   106
 Initial guess from the checkpoint file:  "claisen_ts_IRCF.chk"
 B after Tr=    -0.000125   -0.000270   -0.000060
         Rot=    1.000000   -0.000098    0.000108    0.000019 Ang=  -0.02 deg.
 ExpMin= 1.61D-01 ExpMax= 5.48D+03 ExpMxC= 8.25D+02 IAcc=3 IRadAn=         5 AccDes= 0.00D+00
 Harris functional with IExCor=  402 and IRadAn=       5 diagonalized for initial guess.
 HarFok:  IExCor=  402 AccDes= 0.00D+00 IRadAn=         5 IDoV= 1 UseB2=F ITyADJ=14
 ICtDFT=  3500011 ScaDFX=  1.000000  1.000000  1.000000  1.000000
 FoFCou: FMM=F IPFlag=           0 FMFlag=      100000 FMFlg1=           0
         NFxFlg=           0 DoJE=T BraDBF=F KetDBF=T FulRan=T
         wScrn=  0.000000 ICntrl=       500 IOpCl=  0 I1Cent=   200000004 NGrid=           0
         NMat0=    1 NMatS0=      1 NMatT0=    0 NMatD0=    1 NMtDS0=    0 NMtDT0=    0
 Symmetry not used in FoFCou.
 Requested convergence on RMS density matrix=1.00D-08 within 128 cycles.
 Requested convergence on MAX density matrix=1.00D-06.
 Requested convergence on             energy=1.00D-06.
 No special actions if energy rises.
 Integral accuracy reduced to 1.0D-05 until final iterations.
 Initial convergence to 1.0D-05 achieved.  Increase integral accuracy.
 SCF Done:  E(RB3LYP) =  -270.473017933     A.U. after   12 cycles
            NFock= 12  Conv=0.55D-08     -V/T= 2.0096
 DoSCS=F DFT=T ScalE2(SS,OS)=  1.000000  1.000000
 Range of M.O.s used for correlation:     1   106
 NBasis=   106 NAE=    23 NBE=    23 NFC=     0 NFV=     0
 NROrb=    106 NOA=    23 NOB=    23 NVA=    83 NVB=    83
 Symmetrizing basis deriv contribution to polar:
 IMax=3 JMax=2 DiffMx= 0.00D+00
 Calling FoFJK, ICntrl=      2147 FMM=F ISym2X=0 I1Cent= 0 IOpClX= 0 NMat=1 NMatS=1 NMatT=0.
 -------------------------------------------------------------------
 Center     Atomic                   Forces (Hartrees/Bohr)
 Number     Number              X              Y              Z
 -------------------------------------------------------------------
      1        6          -0.012284565   -0.006658263   -0.002707295
      2        6           0.000792722    0.001369563    0.000895269
      3        8           0.019375886    0.006228706    0.003147567
      4        6          -0.020128124   -0.005189863   -0.003067797
      5        6          -0.001773095    0.000731225   -0.000510563
      6        6           0.014437081    0.004487012    0.002437970
      7        1          -0.001533450   -0.001022803   -0.000376210
      8        1          -0.000069954    0.000184615    0.000436028
      9        1          -0.000086873   -0.000647804   -0.000268503
     10        1          -0.000783624   -0.000029595    0.000089333
     11        1          -0.000228743   -0.000010051   -0.000265524
     12        1           0.000489518   -0.000030904    0.000175449
     13        1           0.001850062    0.000463504    0.000387974
     14        1          -0.000056840    0.000124658   -0.000373699
 -------------------------------------------------------------------
 Cartesian Forces:  Max     0.020128124 RMS     0.005604359
 IRC-IRC-IRC-IRC-IRC-IRC-IRC-IRC-IRC-IRC-IRC-IRC-IRC-IRC-IRC-IRC-IRC-IRC
 Pt  6 Step number   1 out of a maximum of 200
 Modified Bulirsch-Stoer Extrapolation Cycles:
    EPS =    0.000010000000000
      PEZero:  N= 2 I= 1 D=  1.56D-03 Err=  5.10D-05
      PEZero:  N= 3 I= 2 D=  1.56D-03 Err=  3.40D-05
      PEZero:  N= 3 I= 1 D=  3.12D-03 Err=  8.55D-08
 Maximum DWI energy   std dev =  0.000006369 at pt    21
 Maximum DWI gradient std dev =  0.010415981 at pt    58
 CORRECTOR INTEGRATION CONVERGENCE:
   Recorrection delta-x convergence threshold:    0.010000
   Delta-x Convergence Met
 Point Number:   6          Path Number:   1
   CHANGE IN THE REACTION COORDINATE =    0.29904
   NET REACTION COORDINATE UP TO THIS POINT =    1.79431
  # OF POINTS ALONG THE PATH =   6
  # OF STEPS =   1

 Calculating another point on the path.
 IRC-IRC-IRC-IRC-IRC-IRC-IRC-IRC-IRC-IRC-IRC-IRC-IRC-IRC-IRC-IRC-IRC-IRC
                          Input orientation:                          
 ---------------------------------------------------------------------
 Center     Atomic      Atomic             Coordinates (Angstroms)
 Number     Number       Type             X           Y           Z
 ---------------------------------------------------------------------
      1          6           0       -1.569269    0.764957   -0.301059
      2          6           0       -1.279833   -0.411742    0.279560
      3          8           0       -0.370262   -1.283479   -0.220107
      4          6           0        1.112829   -0.909481    0.165454
      5          6           0        1.370998    0.466099   -0.292847
      6          6           0        0.803802    1.499155    0.354229
      7          1           0       -2.279591    1.446900    0.158523
      8          1           0       -1.204459    1.014588   -1.289802
      9          1           0       -1.672626   -0.654300    1.273249
     10          1           0        1.684589   -1.686230   -0.340848
     11          1           0        1.178024   -1.033008    1.250619
     12          1           0        1.733107    0.598169   -1.310847
     13          1           0        0.776404    2.502181   -0.064349
     14          1           0        0.437789    1.403688    1.371540
 ---------------------------------------------------------------------
                    Distance matrix (angstroms):
                    1          2          3          4          5
     1  C    0.000000
     2  C    1.343693   0.000000
     3  O    2.374923   1.355327   0.000000
     4  C    3.196095   2.446548   1.577368   0.000000
     5  C    2.955428   2.850467   2.469474   1.472723   0.000000
     6  C    2.569030   2.828186   3.074303   2.435705   1.344478
     7  H    1.086655   2.113933   3.353187   4.130507   3.806902
     8  H    1.083058   2.122026   2.668566   3.345091   2.815624
     9  H    2.122126   1.095691   2.078973   3.008503   3.601611
    10  H    4.074001   3.285882   2.097427   1.089307   2.175584
    11  H    3.631529   2.714772   2.150106   1.094117   2.160289
    12  H    3.457337   3.553466   3.025636   2.199367   1.088526
    13  H    2.928508   3.582922   3.958576   3.435903   2.133397
    14  H    2.689581   2.727349   3.226012   2.694638   2.126061
                    6          7          8          9         10
     6  C    0.000000
     7  H    3.090039   0.000000
     8  H    2.640219   1.854844   0.000000
     9  H    3.408029   2.454804   3.094123   0.000000
    10  H    3.377217   5.077459   4.067128   3.865369   0.000000
    11  H    2.712085   4.392916   4.040125   2.875785   1.793341
    12  H    2.108996   4.356735   2.967009   4.454801   2.482283
    13  H    1.087207   3.240739   2.763781   4.213109   4.294652
    14  H    1.085358   2.976143   3.151368   2.949378   3.746248
                   11         12         13         14
    11  H    0.000000
    12  H    3.087064   0.000000
    13  H    3.793152   2.468664   0.000000
    14  H    2.549521   3.085759   1.839326   0.000000
 Symmetry turned off by external request.
 Stoichiometry    C5H8O
 Framework group  C1[X(C5H8O)]
 Deg. of freedom    36
 Full point group                 C1      NOp   1
 Rotational constants (GHZ):           4.8552968           3.8947612           2.4614371
 Standard basis: 6-31G(d) (6D, 7F)
   106 basis functions,   200 primitive gaussians,   106 cartesian basis functions
    23 alpha electrons       23 beta electrons
       nuclear repulsion energy       231.3324623375 Hartrees.
 NAtoms=   14 NActive=   14 NUniq=   14 SFac= 1.00D+00 NAtFMM=   60 NAOKFM=F Big=F
 Integral buffers will be    131072 words long.
 Raffenetti 2 integral format.
 Two-electron integral symmetry is turned off.
 One-electron integrals computed using PRISM.
 NBasis=   106 RedAO= T EigKep=  4.41D-03  NBF=   106
 NBsUse=   106 1.00D-06 EigRej= -1.00D+00 NBFU=   106
 Initial guess from the checkpoint file:  "claisen_ts_IRCF.chk"
 B after Tr=    -0.000106   -0.000300   -0.000044
         Rot=    1.000000   -0.000096    0.000123    0.000023 Ang=  -0.02 deg.
 ExpMin= 1.61D-01 ExpMax= 5.48D+03 ExpMxC= 8.25D+02 IAcc=3 IRadAn=         5 AccDes= 0.00D+00
 Harris functional with IExCor=  402 and IRadAn=       5 diagonalized for initial guess.
 HarFok:  IExCor=  402 AccDes= 0.00D+00 IRadAn=         5 IDoV= 1 UseB2=F ITyADJ=14
 ICtDFT=  3500011 ScaDFX=  1.000000  1.000000  1.000000  1.000000
 FoFCou: FMM=F IPFlag=           0 FMFlag=      100000 FMFlg1=           0
         NFxFlg=           0 DoJE=T BraDBF=F KetDBF=T FulRan=T
         wScrn=  0.000000 ICntrl=       500 IOpCl=  0 I1Cent=   200000004 NGrid=           0
         NMat0=    1 NMatS0=      1 NMatT0=    0 NMatD0=    1 NMtDS0=    0 NMtDT0=    0
 Symmetry not used in FoFCou.
 Requested convergence on RMS density matrix=1.00D-08 within 128 cycles.
 Requested convergence on MAX density matrix=1.00D-06.
 Requested convergence on             energy=1.00D-06.
 No special actions if energy rises.
 Integral accuracy reduced to 1.0D-05 until final iterations.
 Initial convergence to 1.0D-05 achieved.  Increase integral accuracy.
 SCF Done:  E(RB3LYP) =  -270.476082530     A.U. after   12 cycles
            NFock= 12  Conv=0.54D-08     -V/T= 2.0095
 DoSCS=F DFT=T ScalE2(SS,OS)=  1.000000  1.000000
 Range of M.O.s used for correlation:     1   106
 NBasis=   106 NAE=    23 NBE=    23 NFC=     0 NFV=     0
 NROrb=    106 NOA=    23 NOB=    23 NVA=    83 NVB=    83
 Symmetrizing basis deriv contribution to polar:
 IMax=3 JMax=2 DiffMx= 0.00D+00
 Calling FoFJK, ICntrl=      2147 FMM=F ISym2X=0 I1Cent= 0 IOpClX= 0 NMat=1 NMatS=1 NMatT=0.
 -------------------------------------------------------------------
 Center     Atomic                   Forces (Hartrees/Bohr)
 Number     Number              X              Y              Z
 -------------------------------------------------------------------
      1        6          -0.012490348   -0.006752062   -0.002865420
      2        6           0.000868081    0.000619915    0.000903850
      3        8           0.016512288    0.006325361    0.002577231
      4        6          -0.017664549   -0.004295807   -0.002507524
      5        6          -0.001759134    0.000301460   -0.000574446
      6        6           0.014762000    0.004852249    0.002616576
      7        1          -0.001607993   -0.001159255   -0.000432476
      8        1          -0.000248264    0.000138326    0.000513199
      9        1          -0.000082895   -0.000707548   -0.000307647
     10        1          -0.000709861    0.000023525    0.000133588
     11        1          -0.000330667    0.000016977   -0.000292123
     12        1           0.000551535   -0.000078600    0.000227807
     13        1           0.002120975    0.000455866    0.000474569
     14        1           0.000078831    0.000259593   -0.000467184
 -------------------------------------------------------------------
 Cartesian Forces:  Max     0.017664549 RMS     0.005189364
 IRC-IRC-IRC-IRC-IRC-IRC-IRC-IRC-IRC-IRC-IRC-IRC-IRC-IRC-IRC-IRC-IRC-IRC
 Pt  7 Step number   1 out of a maximum of 200
 Modified Bulirsch-Stoer Extrapolation Cycles:
    EPS =    0.000010000000000
      PEZero:  N= 2 I= 1 D=  1.56D-03 Err=  9.52D-05
      PEZero:  N= 3 I= 2 D=  1.56D-03 Err=  6.35D-05
      PEZero:  N= 3 I= 1 D=  3.12D-03 Err=  1.19D-07
 Maximum DWI energy   std dev =  0.000015714 at pt    47
 Maximum DWI gradient std dev =  0.022245946 at pt    58
 CORRECTOR INTEGRATION CONVERGENCE:
   Recorrection delta-x convergence threshold:    0.010000
   Delta-x Convergence Met
 Point Number:   7          Path Number:   1
   CHANGE IN THE REACTION COORDINATE =    0.29892
   NET REACTION COORDINATE UP TO THIS POINT =    2.09323
  # OF POINTS ALONG THE PATH =   7
  # OF STEPS =   1

 Calculating another point on the path.
[...]
 Initial guess from the checkpoint file:  "claisen_ts_IRCF.chk"
 B after Tr=    -0.000042    0.000143   -0.000046
         Rot=    1.000000    0.000139   -0.000020   -0.000024 Ang=   0.02 deg.
 ExpMin= 1.61D-01 ExpMax= 5.48D+03 ExpMxC= 8.25D+02 IAcc=3 IRadAn=         5 AccDes= 0.00D+00
 Harris functional with IExCor=  402 and IRadAn=       5 diagonalized for initial guess.
 HarFok:  IExCor=  402 AccDes= 0.00D+00 IRadAn=         5 IDoV= 1 UseB2=F ITyADJ=14
 ICtDFT=  3500011 ScaDFX=  1.000000  1.000000  1.000000  1.000000
 FoFCou: FMM=F IPFlag=           0 FMFlag=      100000 FMFlg1=           0
         NFxFlg=           0 DoJE=T BraDBF=F KetDBF=T FulRan=T
         wScrn=  0.000000 ICntrl=       500 IOpCl=  0 I1Cent=   200000004 NGrid=           0
         NMat0=    1 NMatS0=      1 NMatT0=    0 NMatD0=    1 NMtDS0=    0 NMtDT0=    0
 Symmetry not used in FoFCou.
 Requested convergence on RMS density matrix=1.00D-08 within 128 cycles.
 Requested convergence on MAX density matrix=1.00D-06.
 Requested convergence on             energy=1.00D-06.
 No special actions if energy rises.
 Integral accuracy reduced to 1.0D-05 until final iterations.
 Initial convergence to 1.0D-05 achieved.  Increase integral accuracy.
 SCF Done:  E(RB3LYP) =  -270.504643828     A.U. after    8 cycles
            NFock=  8  Conv=0.87D-08     -V/T= 2.0096
 DoSCS=F DFT=T ScalE2(SS,OS)=  1.000000  1.000000
 Range of M.O.s used for correlation:     1   106
 NBasis=   106 NAE=    23 NBE=    23 NFC=     0 NFV=     0
 NROrb=    106 NOA=    23 NOB=    23 NVA=    83 NVB=    83
 Symmetrizing basis deriv contribution to polar:
 IMax=3 JMax=2 DiffMx= 0.00D+00
 Calling FoFJK, ICntrl=      2147 FMM=F ISym2X=0 I1Cent= 0 IOpClX= 0 NMat=1 NMatS=1 NMatT=0.
 -------------------------------------------------------------------
 Center     Atomic                   Forces (Hartrees/Bohr)
 Number     Number              X              Y              Z
 -------------------------------------------------------------------
      1        6          -0.000120039   -0.000243707    0.000003837
      2        6          -0.000043408    0.000152103   -0.000066677
      3        8          -0.000022484    0.000111749   -0.000028027
      4        6          -0.000027378    0.000039656    0.000002616
      5        6           0.000015028   -0.000010261    0.000007840
      6        6           0.000182126   -0.000027945    0.000082526
      7        1          -0.000001342   -0.000020914   -0.000024908
      8        1           0.000006922    0.000003516    0.000148674
      9        1          -0.000020462   -0.000008593   -0.000145660
     10        1          -0.000001590    0.000001586    0.000000563
     11        1          -0.000003593    0.000001799    0.000002152
     12        1          -0.000001731    0.000002770   -0.000005635
     13        1           0.000021214    0.000003412    0.000006631
     14        1           0.000016737   -0.000005172    0.000016068
 -------------------------------------------------------------------
 Cartesian Forces:  Max     0.000243707 RMS     0.000070139
 IRC-IRC-IRC-IRC-IRC-IRC-IRC-IRC-IRC-IRC-IRC-IRC-IRC-IRC-IRC-IRC-IRC-IRC
 Error in corrector energy =           0.0000000672
 Magnitude of corrector gradient =     0.0004015169
 Magnitude of analytic gradient =      0.0004545519
 Magnitude of difference =             0.0002221187
 Angle between gradients (degrees)=   29.2444
 Pt 58 Step number   3 out of a maximum of 200
 Modified Bulirsch-Stoer Extrapolation Cycles:
    EPS =    0.000010000000000
      PEZero:  N= 2 I= 1 D=  1.56D-03 Err=  1.13D-02
      PEZero:  N= 3 I= 2 D=  1.56D-03 Err=  1.73D-02
      PEZero:  N= 3 I= 1 D=  3.12D-03 Err=  1.48D-02
      PEZero:  N= 4 I= 3 D=  7.79D-04 Err=  3.00D-02
      PEZero:  N= 4 I= 2 D=  2.34D-03 Err=  2.27D-02
      PEZero:  N= 4 I= 1 D=  3.89D-03 Err=  1.84D-02
      PEZero:  N= 5 I= 4 D=  7.79D-04 Err=  4.21D-02
      PEZero:  N= 5 I= 3 D=  1.56D-03 Err=  3.32D-02
      PEZero:  N= 5 I= 2 D=  3.12D-03 Err=  2.19D-02
      PEZero:  N= 5 I= 1 D=  4.67D-03 Err=  1.57D-02
      PEZero:  N= 6 I= 5 D=  3.89D-04 Err=  6.46D-02
      PEZero:  N= 6 I= 4 D=  1.17D-03 Err=  4.40D-02
      PEZero:  N= 6 I= 3 D=  1.95D-03 Err=  3.29D-02
      PEZero:  N= 6 I= 2 D=  3.50D-03 Err=  2.20D-02
      PEZero:  N= 6 I= 1 D=  5.06D-03 Err=  1.66D-02
      PEZero:  N= 7 I= 6 D=  3.89D-04 Err=  8.17D-02
      PEZero:  N= 7 I= 5 D=  7.79D-04 Err=  5.80D-02
      PEZero:  N= 7 I= 4 D=  1.56D-03 Err=  3.60D-02
      PEZero:  N= 7 I= 3 D=  2.34D-03 Err=  2.50D-02
      PEZero:  N= 7 I= 2 D=  3.89D-03 Err=  1.56D-02
      PEZero:  N= 7 I= 1 D=  5.45D-03 Err=  1.10D-02
      PEZero:  N= 8 I= 7 D=  1.95D-04 Err=  2.13D-05
      PEZero:  N= 8 I= 6 D=  5.84D-04 Err=  8.17D-02
      PEZero:  N= 9 I= 8 D=  1.95D-04 Err=  1.42D-05
      PEZero:  N= 9 I= 7 D=  3.89D-04 Err=  4.64D-07
      PEZero:  N= 9 I= 6 D=  7.79D-04 Err=  2.90D-02
 Maximum DWI energy   std dev =  0.000001103 at pt   249
 Maximum DWI gradient std dev =  1.087966078 at pt   414
 CORRECTOR INTEGRATION CONVERGENCE:
   Recorrection delta-x convergence threshold:    0.010000
   Delta-x Convergence Met
 Point Number:  58          Path Number:   1
   CHANGE IN THE REACTION COORDINATE =    0.29814
   NET REACTION COORDINATE UP TO THIS POINT =   17.34028
  # OF POINTS ALONG THE PATH =  58
  # OF STEPS =   3

 PES minimum detected on this side of the pathway.
    Magnitude of the gradient =      0.0001391
 Calculation of FORWARD path complete.
 Reaction path calculation complete.
 
 Energies reported relative to the TS energy of        -270.461121
 --------------------------------------------------------------------------
    Summary of reaction path following
 --------------------------------------------------------------------------
                        Energy    RxCoord
   1                    0.00000   0.00000
   2                   -0.00039   0.29909
   3                   -0.00155   0.59810
   4                   -0.00342   0.89715
   5                   -0.00589   1.19621
   6                   -0.00879   1.49527
   7                   -0.01190   1.79431
   8                   -0.01496   2.09323
   9                   -0.01776   2.39190
  10                   -0.02016   2.69010
  11                   -0.02220   2.98803
  12                   -0.02399   3.28670
  13                   -0.02559   3.58565
  14                   -0.02702   3.88468
  15                   -0.02830   4.18374
  16                   -0.02945   4.48280
  17                   -0.03048   4.78186
  18                   -0.03141   5.08092
  19                   -0.03225   5.37999
  20                   -0.03300   5.67906
  21                   -0.03368   5.97814
  22                   -0.03430   6.27722
  23                   -0.03486   6.57629
  24                   -0.03538   6.87535
  25                   -0.03584   7.17440
  26                   -0.03627   7.47342
  27                   -0.03667   7.77244
  28                   -0.03704   8.07147
  29                   -0.03739   8.37049
  30                   -0.03773   8.66952
  31                   -0.03804   8.96850
  32                   -0.03835   9.26756
  33                   -0.03865   9.56662
  34                   -0.03894   9.86568
  35                   -0.03923  10.16474
  36                   -0.03950  10.46373
  37                   -0.03978  10.76281
  38                   -0.04004  11.06187
  39                   -0.04030  11.36094
  40                   -0.04056  11.66000
  41                   -0.04081  11.95899
  42                   -0.04105  12.25806
  43                   -0.04128  12.55711
  44                   -0.04151  12.85617
  45                   -0.04172  13.15522
  46                   -0.04193  13.45418
  47                   -0.04213  13.75325
  48                   -0.04231  14.05229
  49                   -0.04248  14.35135
  50                   -0.04265  14.65039
  51                   -0.04279  14.94922
  52                   -0.04293  15.24829
  53                   -0.04305  15.54732
  54                   -0.04316  15.84636
  55                   -0.04326  16.14536
  56                   -0.04334  16.44413
  57                   -0.04342  16.74316
  58                   -0.04348  17.04214
  59                   -0.04352  17.34028
 --------------------------------------------------------------------------
 
 Total number of points:                   58
 Total number of gradient calculations:    69
 Total number of Hessian calculations:     12
 IRC-IRC-IRC-IRC-IRC-IRC-IRC-IRC-IRC-IRC-IRC-IRC-IRC-IRC-IRC-IRC-IRC-IRC
                          Input orientation:                          
 ---------------------------------------------------------------------
 Center     Atomic      Atomic             Coordinates (Angstroms)
 Number     Number       Type             X           Y           Z
 ---------------------------------------------------------------------
      1          6           0       -2.572537   -0.077231   -0.449113
      2          6           0       -1.394157   -0.198106    0.160850
      3          8           0       -0.381711   -0.962221   -0.344963
      4          6           0        0.910901   -0.731308    0.227449
      5          6           0        1.510527    0.572649   -0.219342
      6          6           0        1.975212    1.507482    0.609128
      7          1           0       -3.365400    0.497268    0.015265
      8          1           0       -2.769404   -0.553723   -1.404061
      9          1           0       -1.179697    0.283925    1.115679
     10          1           0        1.515791   -1.577048   -0.117397
     11          1           0        0.856783   -0.777711    1.325374
     12          1           0        1.548897    0.722950   -1.297821
     13          1           0        2.416087    2.430661    0.243185
     14          1           0        1.939969    1.382440    1.689878
 ---------------------------------------------------------------------
                    Distance matrix (angstroms):
                    1          2          3          4          5
     1  C    0.000000
     2  C    1.332383   0.000000
     3  O    2.365116   1.365565   0.000000
     4  C    3.608309   2.366862   1.432418   0.000000
     5  C    4.140840   3.029158   2.439707   1.503156   0.000000
     6  C    4.930843   3.802976   3.544687   2.508110   1.332744
     7  H    1.083664   2.095361   3.340999   4.454343   4.882150
     8  H    1.085231   2.113460   2.643792   4.029641   4.581493
     9  H    2.125797   1.090892   2.079215   2.488022   3.017109
    10  H    4.367369   3.232136   2.007564   1.095484   2.152119
    11  H    3.924247   2.599767   2.087567   1.100238   2.153371
    12  H    4.283318   3.411397   2.734042   2.201897   1.089577
    13  H    5.626293   4.629812   4.436805   3.501983   2.118060
    14  H    5.202752   3.994052   3.876623   2.768684   2.117854
                    6          7          8          9         10
     6  C    0.000000
     7  H    5.467663   0.000000
     8  H    5.550934   1.863942   0.000000
     9  H    3.421569   2.456364   3.094820   0.000000
    10  H    3.202066   5.305319   4.589727   3.499907   0.000000
    11  H    2.643104   4.600955   4.544141   2.306142   1.776181
    12  H    2.105633   5.091703   4.504320   3.669189   2.585437
    13  H    1.086530   6.100455   6.205585   4.277778   4.123383
    14  H    1.088530   5.633364   5.958135   3.356897   3.493528
                   11         12         13         14
    11  H    0.000000
    12  H    3.100348   0.000000
    13  H    3.727764   2.458251   0.000000
    14  H    2.443851   3.084512   1.848886   0.000000
 Symmetry turned off by external request.
 Stoichiometry    C5H8O
 Framework group  C1[X(C5H8O)]
 Deg. of freedom    36
 Full point group                 C1      NOp   1
 Rotational constants (GHZ):           8.1255786           1.9306476           1.7071015

 **********************************************************************

            Population analysis using the SCF Density.

 **********************************************************************

 Alpha  occ. eigenvalues --  -19.16963 -10.24610 -10.23249 -10.19747 -10.19286
 Alpha  occ. eigenvalues --  -10.16165  -1.05373  -0.79654  -0.74819  -0.67843
 Alpha  occ. eigenvalues --   -0.58051  -0.56851  -0.51003  -0.47746  -0.45816
 Alpha  occ. eigenvalues --   -0.43805  -0.40688  -0.38239  -0.37822  -0.33670
 Alpha  occ. eigenvalues --   -0.32410  -0.27236  -0.21840
 Alpha virt. eigenvalues --    0.00376   0.04127   0.10305   0.11520   0.13141
 Alpha virt. eigenvalues --    0.14306   0.15535   0.17071   0.17931   0.18829
 Alpha virt. eigenvalues --    0.20629   0.28817   0.30978   0.35116   0.36194
 Alpha virt. eigenvalues --    0.50057   0.50631   0.51026   0.53203   0.55958
 Alpha virt. eigenvalues --    0.57348   0.59775   0.61423   0.64132   0.65990
 Alpha virt. eigenvalues --    0.68859   0.69259   0.71901   0.77561   0.82243
 Alpha virt. eigenvalues --    0.84969   0.85998   0.86914   0.88679   0.90336
 Alpha virt. eigenvalues --    0.92876   0.94646   0.96454   1.04853   1.10227
 Alpha virt. eigenvalues --    1.11631   1.15863   1.20665   1.24611   1.33204
 Alpha virt. eigenvalues --    1.35896   1.40249   1.44906   1.47728   1.56435
 Alpha virt. eigenvalues --    1.61755   1.67265   1.74190   1.76706   1.85345
 Alpha virt. eigenvalues --    1.88534   1.91944   1.94151   1.95637   1.99898
 Alpha virt. eigenvalues --    2.05394   2.11248   2.18024   2.22801   2.26451
 Alpha virt. eigenvalues --    2.29053   2.30922   2.35875   2.45396   2.53550
 Alpha virt. eigenvalues --    2.55765   2.63648   2.73204   2.78916   2.86958
 Alpha virt. eigenvalues --    2.91636   3.05376   3.94039   4.11252   4.12628
 Alpha virt. eigenvalues --    4.26140   4.30887   4.46154
          Condensed to atoms (all electrons):
               1          2          3          4          5          6
     1  C    5.097257   0.679942  -0.050204   0.004107   0.000096  -0.000152
     2  C    0.679942   4.590854   0.278588  -0.030748  -0.001884  -0.000043
     3  O   -0.050204   0.278588   8.160429   0.227683  -0.045469   0.001052
     4  C    0.004107  -0.030748   0.227683   4.868975   0.380562  -0.029669
     5  C    0.000096  -0.001884  -0.045469   0.380562   4.861693   0.649860
     6  C   -0.000152  -0.000043   0.001052  -0.029669   0.649860   5.017793
     7  H    0.364241  -0.018890   0.002558  -0.000201   0.000010   0.000002
     8  H    0.360101  -0.025621  -0.002383   0.000083  -0.000028   0.000001
     9  H   -0.061992   0.354405  -0.050718  -0.006314   0.000512   0.001265
    10  H   -0.000282   0.005241  -0.038681   0.376940  -0.040162   0.001841
    11  H    0.000019  -0.009390  -0.032275   0.354842  -0.055208  -0.002181
    12  H   -0.000008  -0.000068   0.002085  -0.050701   0.367881  -0.043127
    13  H    0.000003  -0.000012  -0.000074   0.004336  -0.022909   0.365947
    14  H   -0.000003  -0.000087   0.000067  -0.011489  -0.038181   0.370276
               7          8          9         10         11         12
     1  C    0.364241   0.360101  -0.061992  -0.000282   0.000019  -0.000008
     2  C   -0.018890  -0.025621   0.354405   0.005241  -0.009390  -0.000068
     3  O    0.002558  -0.002383  -0.050718  -0.038681  -0.032275   0.002085
     4  C   -0.000201   0.000083  -0.006314   0.376940   0.354842  -0.050701
     5  C    0.000010  -0.000028   0.000512  -0.040162  -0.055208   0.367881
     6  C    0.000002   0.000001   0.001265   0.001841  -0.002181  -0.043127
     7  H    0.553985  -0.036504  -0.003676   0.000004   0.000010   0.000000
     8  H   -0.036504   0.555281   0.005769  -0.000002   0.000031   0.000009
     9  H   -0.003676   0.005769   0.623645   0.000077   0.011350   0.000290
    10  H    0.000004  -0.000002   0.000077   0.571657  -0.036359  -0.002359
    11  H    0.000010   0.000031   0.011350  -0.036359   0.616883   0.005395
    12  H    0.000000   0.000009   0.000290  -0.002359   0.005395   0.576109
    13  H    0.000000   0.000000   0.000021  -0.000229  -0.000005  -0.007142
    14  H    0.000000   0.000000   0.000237   0.000185   0.007614   0.005614
              13         14
     1  C    0.000003  -0.000003
     2  C   -0.000012  -0.000087
     3  O   -0.000074   0.000067
     4  C    0.004336  -0.011489
     5  C   -0.022909  -0.038181
     6  C    0.365947   0.370276
     7  H    0.000000   0.000000
     8  H    0.000000   0.000000
     9  H    0.000021   0.000237
    10  H   -0.000229   0.000185
    11  H   -0.000005   0.007614
    12  H   -0.007142   0.005614
    13  H    0.551381  -0.041728
    14  H   -0.041728   0.566065
 Mulliken charges:
               1
     1  C   -0.393124
     2  C    0.177714
     3  O   -0.452659
     4  C   -0.088407
     5  C   -0.056774
     6  C   -0.332864
     7  H    0.138460
     8  H    0.143263
     9  H    0.125128
    10  H    0.162128
    11  H    0.139275
    12  H    0.146022
    13  H    0.150410
    14  H    0.141429
 Sum of Mulliken charges =  -0.00000
 Mulliken charges with hydrogens summed into heavy atoms:
               1
     1  C   -0.111401
     2  C    0.302841
     3  O   -0.452659
     4  C    0.212996
     5  C    0.089248
     6  C   -0.041025
 APT charges:
               1
     1  C   -0.527449
     2  C   -0.632426
     3  O   -0.376669
     4  C   -0.733401
     5  C   -0.718439
     6  C   -0.586002
     7  H    0.595026
     8  H    0.460206
     9  H    0.276378
    10  H    0.498399
    11  H    0.341772
    12  H    0.386766
    13  H    0.627745
    14  H    0.388094
 Sum of APT charges =  -0.00000
 APT charges with hydrogens summed into heavy atoms:
               1
     1  C    0.527783
     2  C   -0.356048
     3  O   -0.376669
     4  C    0.106770
     5  C   -0.331674
     6  C    0.429837
 Electronic spatial extent (au):  <R**2>=            735.2716
 Charge=             -0.0000 electrons
 Dipole moment (field-independent basis, Debye):
    X=              1.2723    Y=              0.7006    Z=              0.9534  Tot=              1.7374
 Quadrupole moment (field-independent basis, Debye-Ang):
   XX=            -36.1544   YY=            -37.3807   ZZ=            -34.9151
   XY=             -0.8126   XZ=             -0.2540   YZ=              0.2157
 Traceless Quadrupole moment (field-independent basis, Debye-Ang):
   XX=             -0.0044   YY=             -1.2306   ZZ=              1.2349
   XY=             -0.8126   XZ=             -0.2540   YZ=              0.2157
 Octapole moment (field-independent basis, Debye-Ang**2):
  XXX=             -7.8030  YYY=             -3.8535  ZZZ=             -2.2410  XYY=              7.2258
  XXY=              1.8832  XXZ=             -2.6945  XZZ=              0.6374  YZZ=             -1.6047
  YYZ=             -0.4028  XYZ=             -1.6788
 Hexadecapole moment (field-independent basis, Debye-Ang**3):
 XXXX=           -686.5663 YYYY=           -210.1686 ZZZZ=            -96.3318 XXXY=            -83.7864
 XXXZ=            -43.3193 YYYX=            -69.5338 YYYZ=            -20.3906 ZZZX=            -41.8780
 ZZZY=            -17.8403 XXYY=           -140.4207 XXZZ=           -124.0820 YYZZ=            -52.6884
 XXYZ=              0.2008 YYXZ=            -15.6306 ZZXY=            -21.4099
 N-N= 2.200005529727D+02 E-N=-1.068816708628D+03  KE= 2.679421471997D+02
  Exact polarizability:   0.000   0.000   0.000   0.000   0.000   0.000
 Approx polarizability:  86.348   3.965  69.599  17.101  14.951  75.279

 This type of calculation cannot be archived.


 NEVER TEACH A PIG TO SING.
 IT WASTES YOUR TIME AND ANNOYS THE PIG.
     -- SEEN ON A GREETING CARD
 Job cpu time:       0 days  2 hours 55 minutes 23.4 seconds.
 Elapsed time:       0 days  0 hours  7 minutes 46.2 seconds.
 File lengths (MBytes):  RWF=     26 Int=      0 D2E=      0 Chk=      4 Scr=      1
 Normal termination of Gaussian 16 at Thu Jan 13 13:30:42 2022.
