 Entering Gaussian System, Link 0=g16
 Input=claisen_ts_IRCR.com
 Output=claisen_ts_IRCR.log
 Initial command:
 /usr/local/g16/l1.exe "/home/rpaton/Gau-3933070.inp" -scrdir="/home/rpaton/"
 Entering Link 1 = /usr/local/g16/l1.exe PID=   3933071.
  
 Copyright (c) 1988-2017, Gaussian, Inc.  All Rights Reserved.
  
 This is part of the Gaussian(R) 16 program.  It is based on
 the Gaussian(R) 09 system (copyright 2009, Gaussian, Inc.),
 the Gaussian(R) 03 system (copyright 2003, Gaussian, Inc.),
 the Gaussian(R) 98 system (copyright 1998, Gaussian, Inc.),
 the Gaussian(R) 94 system (copyright 1995, Gaussian, Inc.),
 the Gaussian 92(TM) system (copyright 1992, Gaussian, Inc.),
 the Gaussian 90(TM) system (copyright 1990, Gaussian, Inc.),
 the Gaussian 88(TM) system (copyright 1988, Gaussian, Inc.),
 the Gaussian 86(TM) system (copyright 1986, Carnegie Mellon
 University), and the Gaussian 82(TM) system (copyright 1983,
 Carnegie Mellon University). Gaussian is a federally registered
 trademark of Gaussian, Inc.
  
 This software contains proprietary and confidential information,
 including trade secrets, belonging to Gaussian, Inc.
  
 This software is provided under written license and may be
 used, copied, transmitted, or stored only in accord with that
 written license.
  
 The following legend is applicable only to US Government
 contracts under FAR:
  
                    RESTRICTED RIGHTS LEGEND
  
 Use, reproduction and disclosure by the US Government is
 subject to restrictions as set forth in subparagraphs (a)
 and (c) of the Commercial Computer Software - Restricted
 Rights clause in FAR 52.227-19.
  
 Gaussian, Inc.
 340 Quinnipiac St., Bldg. 40, Wallingford CT 06492
  
  
 ---------------------------------------------------------------
 Warning -- This program may not be used in any manner that
 competes with the business of Gaussian, Inc. or will provide
 assistance to any competitor of Gaussian, Inc.  The licensee
 of this program is prohibited from giving any competitor of
 Gaussian, Inc. access to this program.  By using this program,
 the user acknowledges that Gaussian, Inc. is engaged in the
 business of creating and licensing software in the field of
 computational chemistry and represents and warrants to the
 licensee that it is not a competitor of Gaussian, Inc. and that
 it will not use this program in any manner prohibited above.
 ---------------------------------------------------------------
  

 Cite this work as:
 Gaussian 16, Revision B.01,
 M. J. Frisch, G. W. Trucks, H. B. Schlegel, G. E. Scuseria, 
 M. A. Robb, J. R. Cheeseman, G. Scalmani, V. Barone, 
 G. A. Petersson, H. Nakatsuji, X. Li, M. Caricato, A. V. Marenich, 
 J. Bloino, B. G. Janesko, R. Gomperts, B. Mennucci, H. P. Hratchian, 
 J. V. Ortiz, A. F. Izmaylov, J. L. Sonnenberg, D. Williams-Young, 
 F. Ding, F. Lipparini, F. Egidi, J. Goings, B. Peng, A. Petrone, 
 T. Henderson, D. Ranasinghe, V. G. Zakrzewski, J. Gao, N. Rega, 
 G. Zheng, W. Liang, M. Hada, M. Ehara, K. Toyota, R. Fukuda, 
 J. Hasegawa, M. Ishida, T. Nakajima, Y. Honda, O. Kitao, H. Nakai, 
 T. Vreven, K. Throssell, J. A. Montgomery, Jr., J. E. Peralta, 
 F. Ogliaro, M. J. Bearpark, J. J. Heyd, E. N. Brothers, K. N. Kudin, 
 V. N. Staroverov, T. A. Keith, R. Kobayashi, J. Normand, 
 K. Raghavachari, A. P. Rendell, J. C. Burant, S. S. Iyengar, 
 J. Tomasi, M. Cossi, J. M. Millam, M. Klene, C. Adamo, R. Cammi, 
 J. W. Ochterski, R. L. Martin, K. Morokuma, O. Farkas, 
 J. B. Foresman, and D. J. Fox, Gaussian, Inc., Wallingford CT, 2016.
 
 ******************************************
 Gaussian 16:  ES64L-G16RevB.01 20-Dec-2017
                13-Jan-2022 
 ******************************************
 %chk=claisen_ts_IRCF.chk
 %mem=48GB
 %nprocshared=24
 Will use up to   24 processors via shared memory.
 ----------------------------------------------------------------------
 # irc(calcfc,reverse,maxpoints=200,maxcycles=200,update=5) b3lyp/6-31g
 (d)
 ----------------------------------------------------------------------
 1/6=200,10=4,18=10,22=2,26=3,38=1,42=200,44=3,71=5,172=1/1,23;
 2/12=2,17=6,18=5,29=1,40=1/2;
 3/5=1,6=6,7=1,11=2,25=1,30=1,71=2,74=-5,140=1/1,2,3;
 4//1;
 5/5=2,38=5/2;
 8/6=4,10=90,11=11/1;
 11/6=1,8=1,9=11,15=111,16=1/1,2,10;
 10/6=1,13=1/2;
 6/7=2,8=2,9=2,10=2,28=1/1;
 7/10=1,18=20,25=1/1,2,3,16;
 1/6=200,10=4,18=10,22=2,26=3,42=200,44=3,71=5/23(2);
 2/29=1/2;
 99/5=20/99;
 2/29=1/2;
 3/5=1,6=6,7=1,11=2,25=1,30=1,71=2,74=-5,140=1/1,2,3;
 4/5=5,16=3,69=1/1;
 5/5=2,38=5/2;
 8/6=4,10=90,11=11/1;
 11/6=1,8=1,9=11,15=111,16=1/1,2,10;
 10/6=1,13=1/2;
 7/10=1,18=20,25=1/1,2,3,16;
 1/6=200,18=10,22=2,26=3,42=200,44=3,71=5/23(-8);
 2/29=1/2;
 6/7=2,8=2,9=2,10=2,19=2,28=1/1;
 99/5=20,9=1/99;
 --------------------------------------
 claisen_ts_IRCFcreated by GaussianPrep
 --------------------------------------
 Symbolic Z-matrix:
 Charge =  0 Multiplicity = 1
 C                    -1.46631   0.78417  -0.28998 
 C                    -1.29106  -0.47206   0.26184 
 O                    -0.51103  -1.35846  -0.25222 
 C                     1.28557  -0.90028   0.18203 
 C                     1.3747    0.4127   -0.3018 
 C                     0.66868   1.4253    0.32224 
 H                    -2.1459    1.4924    0.17879 
 H                    -1.2254    0.95369  -1.33299 
 H                    -1.67666  -0.64615   1.28181 
 H                     1.76639  -1.71191  -0.35332 
 H                     1.17354  -1.0695    1.24882 
 H                     1.6925    0.55703  -1.33268 
 H                     0.62903   2.42495  -0.1017 
 H                     0.44521   1.36818   1.38306 
 
 IRC-IRC-IRC-IRC-IRC-IRC-IRC-IRC-IRC-IRC-IRC-IRC-IRC-IRC-IRC-IRC-IRC-IRC
 ------------------------------------------------------------------------
 INPUT DATA FOR L123
 ------------------------------------------------------------------------
 GENERAL PARAMETERS:
 Rxn path following direction = Reverse
 Maximum points per path      = 200
 Step size                    =   0.100 bohr
 Integration scheme           = HPC                                 
    Redo corrector integration= Yes                                 
    DWI Weight Power          =  2
    DWI will use Hessian update vectors when possible.
    Max correction cycles     = 200
 Initial Hessian              = CalcFC
 Hessian evaluation           = Analytic every   5 predictor steps
                              = Update at all corrector steps
 Hessian updating method      = Bofill                              
 ------------------------------------------------------------------------
 IRC-IRC-IRC-IRC-IRC-IRC-IRC-IRC-IRC-IRC-IRC-IRC-IRC-IRC-IRC-IRC-IRC-IRC
                          Input orientation:                          
 ---------------------------------------------------------------------
 Center     Atomic      Atomic             Coordinates (Angstroms)
 Number     Number       Type             X           Y           Z
 ---------------------------------------------------------------------
      1          6           0       -1.466309    0.784168   -0.289984
      2          6           0       -1.291057   -0.472055    0.261839
      3          8           0       -0.511026   -1.358456   -0.252221
      4          6           0        1.285570   -0.900284    0.182034
      5          6           0        1.374702    0.412704   -0.301796
      6          6           0        0.668679    1.425295    0.322236
      7          1           0       -2.145896    1.492398    0.178794
      8          1           0       -1.225400    0.953689   -1.332994
      9          1           0       -1.676663   -0.646151    1.281812
     10          1           0        1.766394   -1.711906   -0.353320
     11          1           0        1.173540   -1.069495    1.248816
     12          1           0        1.692496    0.557034   -1.332675
     13          1           0        0.629027    2.424945   -0.101698
     14          1           0        0.445205    1.368175    1.383056
 ---------------------------------------------------------------------
                    Distance matrix (angstroms):
                    1          2          3          4          5
     1  C    0.000000
     2  C    1.383227   0.000000
     3  O    2.346237   1.287794   0.000000
     4  C    3.260831   2.613189   1.904273   0.000000
     5  C    2.865217   2.864743   2.587554   1.402132   0.000000
     6  C    2.311716   2.728397   3.077495   2.410089   1.383194
     7  H    1.087741   2.143997   3.314505   4.183288   3.713666
     8  H    1.083810   2.140222   2.650361   3.469509   2.848958
     9  H    2.135557   1.104240   2.054104   3.170003   3.597196
    10  H    4.084699   3.356137   2.306900   1.084678   2.161029
    11  H    3.573902   2.721267   2.274725   1.085913   2.154478
    12  H    3.334193   3.535971   3.113196   2.140960   1.088364
    13  H    2.667964   3.494494   3.954302   3.401279   2.155269
    14  H    2.606533   2.767342   3.320094   2.700847   2.148398
                    6          7          8          9         10
     6  C    0.000000
     7  H    2.819027   0.000000
     8  H    2.559245   1.850141   0.000000
     9  H    3.272966   2.451575   3.098441   0.000000
    10  H    3.391664   5.084951   4.125044   3.957794   0.000000
    11  H    2.708766   4.327459   4.063733   2.881660   1.825105
    12  H    2.130917   4.229976   2.944733   4.431075   2.472385
    13  H    1.086551   2.940836   2.668255   4.081904   4.297727
    14  H    1.085607   2.859979   3.215532   2.927470   3.774578
                   11         12         13         14
    11  H    0.000000
    12  H    3.094997   0.000000
    13  H    3.785696   2.476966   0.000000
    14  H    2.547691   3.096592   1.831679   0.000000
 Symmetry turned off by external request.
 Stoichiometry    C5H8O
 Framework group  C1[X(C5H8O)]
 Deg. of freedom    36
 Full point group                 C1      NOp   1
 Rotational constants (GHZ):           4.8116473           3.8839115           2.4495412
 Standard basis: 6-31G(d) (6D, 7F)
   106 basis functions,   200 primitive gaussians,   106 cartesian basis functions
    23 alpha electrons       23 beta electrons
       nuclear repulsion energy       229.7151886868 Hartrees.
 NAtoms=   14 NActive=   14 NUniq=   14 SFac= 1.00D+00 NAtFMM=   60 NAOKFM=F Big=F
 Integral buffers will be    131072 words long.
 Raffenetti 2 integral format.
 Two-electron integral symmetry is turned off.
 One-electron integrals computed using PRISM.
 NBasis=   106 RedAO= T EigKep=  4.22D-03  NBF=   106
 NBsUse=   106 1.00D-06 EigRej= -1.00D+00 NBFU=   106
 ExpMin= 1.61D-01 ExpMax= 5.48D+03 ExpMxC= 8.25D+02 IAcc=3 IRadAn=         5 AccDes= 0.00D+00
 Harris functional with IExCor=  402 and IRadAn=       5 diagonalized for initial guess.
 HarFok:  IExCor=  402 AccDes= 0.00D+00 IRadAn=         5 IDoV= 1 UseB2=F ITyADJ=14
 ICtDFT=  3500011 ScaDFX=  1.000000  1.000000  1.000000  1.000000
 FoFCou: FMM=F IPFlag=           0 FMFlag=      100000 FMFlg1=           0
         NFxFlg=           0 DoJE=T BraDBF=F KetDBF=T FulRan=T
         wScrn=  0.000000 ICntrl=       500 IOpCl=  0 I1Cent=   200000004 NGrid=           0
         NMat0=    1 NMatS0=      1 NMatT0=    0 NMatD0=    1 NMtDS0=    0 NMtDT0=    0
 Symmetry not used in FoFCou.
 Requested convergence on RMS density matrix=1.00D-08 within 128 cycles.
 Requested convergence on MAX density matrix=1.00D-06.
 Requested convergence on             energy=1.00D-06.
 No special actions if energy rises.
 Integral accuracy reduced to 1.0D-05 until final iterations.
 Initial convergence to 1.0D-05 achieved.  Increase integral accuracy.
 SCF Done:  E(RB3LYP) =  -270.461121387     A.U. after   14 cycles
            NFock= 14  Conv=0.53D-08     -V/T= 2.0096
 DoSCS=F DFT=T ScalE2(SS,OS)=  1.000000  1.000000
 Range of M.O.s used for correlation:     1   106
 NBasis=   106 NAE=    23 NBE=    23 NFC=     0 NFV=     0
 NROrb=    106 NOA=    23 NOB=    23 NVA=    83 NVB=    83
 Symmetrizing basis deriv contribution to polar:
 IMax=3 JMax=2 DiffMx= 0.00D+00
 G2DrvN: will do    15 centers at a time, making    1 passes.
 Calling FoFCou, ICntrl=  3107 FMM=F I1Cent=   0 AccDes= 0.00D+00.
 End of G2Drv F.D. properties file   721 does not exist.
 End of G2Drv F.D. properties file   722 does not exist.
 End of G2Drv F.D. properties file   788 does not exist.
          IDoAtm=11111111111111
          Differentiating once with respect to nuclear coordinates.
 Keep R1 ints in memory in canonical form, NReq=38354418.
          There are    45 degrees of freedom in the 1st order CPHF.  IDoFFX=6 NUNeed=     0.
     39 vectors produced by pass  0 Test12= 4.24D-15 2.22D-09 XBig12= 1.11D-01 1.26D-01.
 AX will form    39 AO Fock derivatives at one time.
     39 vectors produced by pass  1 Test12= 4.24D-15 2.22D-09 XBig12= 1.12D-02 3.45D-02.
     39 vectors produced by pass  2 Test12= 4.24D-15 2.22D-09 XBig12= 1.22D-04 2.15D-03.
     39 vectors produced by pass  3 Test12= 4.24D-15 2.22D-09 XBig12= 2.89D-07 9.61D-05.
     39 vectors produced by pass  4 Test12= 4.24D-15 2.22D-09 XBig12= 2.73D-10 1.85D-06.
     22 vectors produced by pass  5 Test12= 4.24D-15 2.22D-09 XBig12= 1.65D-13 6.73D-08.
 InvSVY:  IOpt=1 It=  1 EMax= 4.00D-15
 Solved reduced A of dimension   217 with    39 vectors.
 End of Minotr F.D. properties file   721 does not exist.
 End of Minotr F.D. properties file   722 does not exist.
 End of Minotr F.D. properties file   788 does not exist.

 **********************************************************************

            Population analysis using the SCF Density.

 **********************************************************************

 Alpha  occ. eigenvalues --  -19.13400 -10.22917 -10.22252 -10.21110 -10.18645
 Alpha  occ. eigenvalues --  -10.18425  -1.00187  -0.79743  -0.73271  -0.67404
 Alpha  occ. eigenvalues --   -0.56854  -0.55476  -0.48640  -0.46006  -0.44252
 Alpha  occ. eigenvalues --   -0.43137  -0.39563  -0.38592  -0.37046  -0.36558
 Alpha  occ. eigenvalues --   -0.27175  -0.25233  -0.22261
 Alpha virt. eigenvalues --   -0.02719   0.01061   0.09107   0.10848   0.11810
 Alpha virt. eigenvalues --    0.13458   0.14677   0.16843   0.18231   0.18857
 Alpha virt. eigenvalues --    0.20706   0.30026   0.30452   0.33869   0.35125
 Alpha virt. eigenvalues --    0.49192   0.51011   0.52411   0.55758   0.56818
 Alpha virt. eigenvalues --    0.58848   0.59937   0.62872   0.64196   0.66622
 Alpha virt. eigenvalues --    0.67143   0.74388   0.77633   0.81493   0.83069
 Alpha virt. eigenvalues --    0.84561   0.85744   0.88128   0.88506   0.91466
 Alpha virt. eigenvalues --    0.94124   0.94686   0.99654   1.02710   1.09300
 Alpha virt. eigenvalues --    1.15042   1.18829   1.22140   1.27074   1.31806
 Alpha virt. eigenvalues --    1.38853   1.46563   1.49696   1.53192   1.58743
 Alpha virt. eigenvalues --    1.65590   1.68331   1.71743   1.75539   1.80586
 Alpha virt. eigenvalues --    1.87034   1.91146   1.99463   1.99713   2.01715
 Alpha virt. eigenvalues --    2.06038   2.07543   2.19073   2.21622   2.26147
 Alpha virt. eigenvalues --    2.26607   2.31174   2.34894   2.40608   2.50831
 Alpha virt. eigenvalues --    2.58560   2.62393   2.67762   2.77421   2.85732
 Alpha virt. eigenvalues --    2.86913   2.99214   3.93080   4.16902   4.22796
 Alpha virt. eigenvalues --    4.29458   4.39744   4.43904
          Condensed to atoms (all electrons):
               1          2          3          4          5          6
     1  C    5.281405   0.510528  -0.062726  -0.018889  -0.028021   0.090581
     2  C    0.510528   4.635205   0.408831  -0.032279  -0.025676  -0.006763
     3  O   -0.062726   0.408831   8.156709   0.087146  -0.035678  -0.017601
     4  C   -0.018889  -0.032279   0.087146   5.003515   0.525478  -0.040272
     5  C   -0.028021  -0.025676  -0.035678   0.525478   4.801630   0.561722
     6  C    0.090581  -0.006763  -0.017601  -0.040272   0.561722   5.069396
     7  H    0.332203  -0.016457   0.003484   0.000398   0.001322  -0.003442
     8  H    0.359079  -0.025453   0.000846  -0.000470  -0.002686  -0.007652
     9  H   -0.102813   0.358177  -0.055078  -0.002949   0.000173  -0.002948
    10  H    0.000195   0.001413  -0.009966   0.369734  -0.026645   0.005112
    11  H   -0.000234  -0.003542  -0.018823   0.368046  -0.037954  -0.010049
    12  H   -0.000760  -0.000175   0.000368  -0.048163   0.378078  -0.051145
    13  H   -0.003261   0.000324   0.000188   0.005056  -0.027190   0.365283
    14  H   -0.010594  -0.003680  -0.000217  -0.007876  -0.035055   0.371334
               7          8          9         10         11         12
     1  C    0.332203   0.359079  -0.102813   0.000195  -0.000234  -0.000760
     2  C   -0.016457  -0.025453   0.358177   0.001413  -0.003542  -0.000175
     3  O    0.003484   0.000846  -0.055078  -0.009966  -0.018823   0.000368
     4  C    0.000398  -0.000470  -0.002949   0.369734   0.368046  -0.048163
     5  C    0.001322  -0.002686   0.000173  -0.026645  -0.037954   0.378078
     6  C   -0.003442  -0.007652  -0.002948   0.005112  -0.010049  -0.051145
     7  H    0.576864  -0.035764   0.001440   0.000001   0.000016  -0.000001
     8  H   -0.035764   0.543008   0.006084  -0.000043   0.000111   0.001155
     9  H    0.001440   0.006084   0.701587  -0.000066   0.002902   0.000036
    10  H    0.000001  -0.000043  -0.000066   0.532654  -0.036905  -0.006206
    11  H    0.000016   0.000111   0.002902  -0.036905   0.560444   0.005235
    12  H   -0.000001   0.001155   0.000036  -0.006206   0.005235   0.589973
    13  H   -0.000105  -0.001212  -0.000019  -0.000183  -0.000031  -0.006288
    14  H   -0.000136   0.001016   0.001615  -0.000014   0.005536   0.005259
              13         14
     1  C   -0.003261  -0.010594
     2  C    0.000324  -0.003680
     3  O    0.000188  -0.000217
     4  C    0.005056  -0.007876
     5  C   -0.027190  -0.035055
     6  C    0.365283   0.371334
     7  H   -0.000105  -0.000136
     8  H   -0.001212   0.001016
     9  H   -0.000019   0.001615
    10  H   -0.000183  -0.000014
    11  H   -0.000031   0.005536
    12  H   -0.006288   0.005259
    13  H    0.546001  -0.039967
    14  H   -0.039967   0.550843
 Mulliken charges:
               1
     1  C   -0.346694
     2  C    0.199545
     3  O   -0.457485
     4  C   -0.208473
     5  C   -0.049498
     6  C   -0.323556
     7  H    0.140176
     8  H    0.161982
     9  H    0.091859
    10  H    0.170919
    11  H    0.165249
    12  H    0.132635
    13  H    0.161403
    14  H    0.161937
 Sum of Mulliken charges =  -0.00000
 Mulliken charges with hydrogens summed into heavy atoms:
               1
     1  C   -0.044535
     2  C    0.291404
     3  O   -0.457485
     4  C    0.127695
     5  C    0.083137
     6  C   -0.000216
 APT charges:
               1
     1  C   -0.777164
     2  C   -0.268284
     3  O   -0.395722
     4  C   -0.770450
     5  C   -0.425616
     6  C   -0.850030
     7  H    0.508078
     8  H    0.357814
     9  H    0.372150
    10  H    0.541307
    11  H    0.379351
    12  H    0.434941
    13  H    0.525073
    14  H    0.368551
 Sum of APT charges =  -0.00000
 APT charges with hydrogens summed into heavy atoms:
               1
     1  C    0.088728
     2  C    0.103867
     3  O   -0.395722
     4  C    0.150207
     5  C    0.009325
     6  C    0.043595
 Electronic spatial extent (au):  <R**2>=            548.3713
 Charge=             -0.0000 electrons
 Dipole moment (field-independent basis, Debye):
    X=              0.7197    Y=              1.8014    Z=              0.8009  Tot=              2.0987
 Quadrupole moment (field-independent basis, Debye-Ang):
   XX=            -36.6360   YY=            -37.0218   ZZ=            -34.7718
   XY=             -3.1070   XZ=             -1.5681   YZ=             -1.4287
 Traceless Quadrupole moment (field-independent basis, Debye-Ang):
   XX=             -0.4928   YY=             -0.8786   ZZ=              1.3714
   XY=             -3.1070   XZ=             -1.5681   YZ=             -1.4287
 Octapole moment (field-independent basis, Debye-Ang**2):
  XXX=             -4.4802  YYY=              2.4552  ZZZ=             -0.3663  XYY=              3.2433
  XXY=             -4.2960  XXZ=             -0.7838  XZZ=              0.6823  YZZ=             -0.9199
  YYZ=              0.1002  XYZ=              0.2923
 Hexadecapole moment (field-independent basis, Debye-Ang**3):
 XXXX=           -373.9327 YYYY=           -276.3888 ZZZZ=            -81.9064 XXXY=             -9.1039
 XXXZ=             -8.3058 YYYX=             -5.8329 YYYZ=             -0.3664 ZZZX=             -0.2043
 ZZZY=             -0.9906 XXYY=           -101.7391 XXZZ=            -71.9656 YYZZ=            -60.0015
 XXYZ=              0.0036 YYXZ=             -2.7414 ZZXY=             -0.2212
 N-N= 2.297151886868D+02 E-N=-1.088634775111D+03  KE= 2.678972947902D+02
  Exact polarizability:   0.000   0.000   0.000   0.000   0.000   0.000
 Approx polarizability: 120.556  -8.605 117.543  -5.438  -0.911  70.023
 Calling FoFJK, ICntrl=    100147 FMM=F ISym2X=0 I1Cent= 0 IOpClX= 0 NMat=1 NMatS=1 NMatT=0.
 -------------------------------------------------------------------
 Center     Atomic                   Forces (Hartrees/Bohr)
 Number     Number              X              Y              Z
 -------------------------------------------------------------------
      1        6           0.000018481   -0.000054342    0.000033854
      2        6          -0.000060467    0.000048677   -0.000016145
      3        8          -0.000020078   -0.000013721   -0.000009438
      4        6           0.000011477    0.000042946    0.000009057
      5        6           0.000022352   -0.000006099   -0.000008044
      6        6           0.000001657    0.000021689   -0.000014824
      7        1          -0.000005804   -0.000000440    0.000002209
      8        1           0.000000110    0.000004236   -0.000016175
      9        1          -0.000004960    0.000003678   -0.000008292
     10        1           0.000008592   -0.000010068    0.000001710
     11        1           0.000017029   -0.000015121    0.000012765
     12        1           0.000002916   -0.000002702   -0.000000972
     13        1          -0.000012664    0.000000233   -0.000001387
     14        1           0.000021358   -0.000018967    0.000015684
 -------------------------------------------------------------------
 Cartesian Forces:  Max     0.000060467 RMS     0.000020287
 IRC-IRC-IRC-IRC-IRC-IRC-IRC-IRC-IRC-IRC-IRC-IRC-IRC-IRC-IRC-IRC-IRC-IRC
          ******** Start new reaction path calculation ********
 Supplied step size of   0.1000 bohr.
    Integration on MW PES will use step size of   0.2992 sqrt(amu)*bohr.
 Point Number:   0          Path Number:   1
 Calculating another point on the path.
 IRC-IRC-IRC-IRC-IRC-IRC-IRC-IRC-IRC-IRC-IRC-IRC-IRC-IRC-IRC-IRC-IRC-IRC
                          Input orientation:                          
 ---------------------------------------------------------------------
 Center     Atomic      Atomic             Coordinates (Angstroms)
 Number     Number       Type             X           Y           Z
 ---------------------------------------------------------------------
      1          6           0       -1.440779    0.832868   -0.274884
      2          6           0       -1.283530   -0.436159    0.272775
      3          8           0       -0.521664   -1.323122   -0.243486
      4          6           0        1.317980   -0.853731    0.197246
      5          6           0        1.383286    0.449527   -0.290359
      6          6           0        0.656661    1.460481    0.330282
      7          1           0       -2.120240    1.541592    0.193905
      8          1           0       -1.221311    0.990646   -1.325051
      9          1           0       -1.670379   -0.603082    1.294927
     10          1           0        1.789365   -1.668833   -0.340733
     11          1           0        1.179161   -1.029505    1.259610
     12          1           0        1.698810    0.596200   -1.321667
     13          1           0        0.624310    2.461230   -0.091894
     14          1           0        0.455086    1.410192    1.396395
 ---------------------------------------------------------------------
                    Distance matrix (angstroms):
                    1          2          3          4          5
     1  C    0.000000
     2  C    1.391074   0.000000
     3  O    2.343939   1.278150   0.000000
     4  C    3.267763   2.635892   1.949067   0.000000
     5  C    2.850006   2.865915   2.602560   1.393020   0.000000
     6  C    2.271426   2.713833   3.076704   2.410523   1.391118
     7  H    1.087989   2.148907   3.309583   4.190339   3.701596
     8  H    1.084394   2.143057   2.648171   3.488139   2.854352
     9  H    2.139854   1.105581   2.050541   3.193433   3.598054
    10  H    4.086156   3.367277   2.338766   1.084443   2.157519
    11  H    3.561908   2.718593   2.288736   1.085718   2.152117
    12  H    3.317948   3.535867   3.126783   2.134110   1.088422
    13  H    2.636217   3.488223   3.956963   3.399080   2.159254
    14  H    2.592446   2.773863   3.333804   2.703311   2.151644
                    6          7          8          9         10
     6  C    0.000000
     7  H    2.781431   0.000000
     8  H    2.547086   1.849011   0.000000
     9  H    3.256371   2.452398   3.099341   0.000000
    10  H    3.394980   5.087010   4.135925   3.972535   0.000000
    11  H    2.708633   4.316517   4.064941   2.881485   1.828164
    12  H    2.135882   4.216143   2.946643   4.431283   2.469981
    13  H    1.086635   2.908603   2.662633   4.071717   4.298452
    14  H    1.086167   2.845268   3.223754   2.929363   3.778664
                   11         12         13         14
    11  H    0.000000
    12  H    3.094502   0.000000
    13  H    3.784132   2.478957   0.000000
    14  H    2.548552   3.097949   1.829842   0.000000
 Symmetry turned off by external request.
 Stoichiometry    C5H8O
 Framework group  C1[X(C5H8O)]
 Deg. of freedom    36
 Full point group                 C1      NOp   1
 Rotational constants (GHZ):           4.8063516           3.8808349           2.4470473
 Standard basis: 6-31G(d) (6D, 7F)
   106 basis functions,   200 primitive gaussians,   106 cartesian basis functions
    23 alpha electrons       23 beta electrons
       nuclear repulsion energy       229.5697659694 Hartrees.
 NAtoms=   14 NActive=   14 NUniq=   14 SFac= 1.00D+00 NAtFMM=   60 NAOKFM=F Big=F
 Integral buffers will be    131072 words long.
 Raffenetti 2 integral format.
 Two-electron integral symmetry is turned off.
 One-electron integrals computed using PRISM.
 NBasis=   106 RedAO= T EigKep=  4.21D-03  NBF=   106
 NBsUse=   106 1.00D-06 EigRej= -1.00D+00 NBFU=   106
 Initial guess from the checkpoint file:  "claisen_ts_IRCF.chk"
 B after Tr=     0.014920    0.075235    0.021689
         Rot=    1.000000    0.000057   -0.000033   -0.000019 Ang=   0.01 deg.
 ExpMin= 1.61D-01 ExpMax= 5.48D+03 ExpMxC= 8.25D+02 IAcc=3 IRadAn=         5 AccDes= 0.00D+00
 Harris functional with IExCor=  402 and IRadAn=       5 diagonalized for initial guess.
 HarFok:  IExCor=  402 AccDes= 0.00D+00 IRadAn=         5 IDoV= 1 UseB2=F ITyADJ=14
 ICtDFT=  3500011 ScaDFX=  1.000000  1.000000  1.000000  1.000000
 FoFCou: FMM=F IPFlag=           0 FMFlag=      100000 FMFlg1=           0
         NFxFlg=           0 DoJE=T BraDBF=F KetDBF=T FulRan=T
         wScrn=  0.000000 ICntrl=       500 IOpCl=  0 I1Cent=   200000004 NGrid=           0
         NMat0=    1 NMatS0=      1 NMatT0=    0 NMatD0=    1 NMtDS0=    0 NMtDT0=    0
 Symmetry not used in FoFCou.
 Requested convergence on RMS density matrix=1.00D-08 within 128 cycles.
 Requested convergence on MAX density matrix=1.00D-06.
 Requested convergence on             energy=1.00D-06.
 No special actions if energy rises.
 Integral accuracy reduced to 1.0D-05 until final iterations.
 Initial convergence to 1.0D-05 achieved.  Increase integral accuracy.
 SCF Done:  E(RB3LYP) =  -270.461517021     A.U. after   13 cycles
            NFock= 13  Conv=0.74D-08     -V/T= 2.0096
 DoSCS=F DFT=T ScalE2(SS,OS)=  1.000000  1.000000
 Range of M.O.s used for correlation:     1   106
 NBasis=   106 NAE=    23 NBE=    23 NFC=     0 NFV=     0
 NROrb=    106 NOA=    23 NOB=    23 NVA=    83 NVB=    83
 Symmetrizing basis deriv contribution to polar:
 IMax=3 JMax=2 DiffMx= 0.00D+00
 Calling FoFJK, ICntrl=      2147 FMM=F ISym2X=0 I1Cent= 0 IOpClX= 0 NMat=1 NMatS=1 NMatT=0.
 -------------------------------------------------------------------
 Center     Atomic                   Forces (Hartrees/Bohr)
 Number     Number              X              Y              Z
 -------------------------------------------------------------------
      1        6           0.003894201    0.001842175    0.000621454
      2        6          -0.000206213   -0.000585115    0.000045432
      3        8          -0.004639032   -0.001229434   -0.000750600
      4        6           0.004650826    0.001257276    0.000918440
      5        6           0.000175490   -0.000602117   -0.000125327
      6        6          -0.004247760   -0.000863303   -0.000599546
      7        1           0.000265461    0.000133291    0.000053357
      8        1          -0.000122514   -0.000050204    0.000106785
      9        1          -0.000048140    0.000018084   -0.000005313
     10        1           0.000323546    0.000078103    0.000045244
     11        1           0.000021462    0.000011347   -0.000196322
     12        1           0.000006987   -0.000005223   -0.000005455
     13        1          -0.000151755   -0.000043774   -0.000004604
     14        1           0.000077441    0.000038893   -0.000103545
 -------------------------------------------------------------------
 Cartesian Forces:  Max     0.004650826 RMS     0.001438061
 IRC-IRC-IRC-IRC-IRC-IRC-IRC-IRC-IRC-IRC-IRC-IRC-IRC-IRC-IRC-IRC-IRC-IRC
 Pt  1 Step number   1 out of a maximum of 200
 Modified Bulirsch-Stoer Extrapolation Cycles:
    EPS =    0.000010000000000
      PEZero:  N= 2 I= 1 D=  7.79D-04 Err=  1.22D-03
      PEZero:  N= 3 I= 2 D=  7.79D-04 Err=  8.10D-04
      PEZero:  N= 3 I= 1 D=  1.56D-03 Err=  4.41D-07
 Maximum DWI energy   std dev =  0.000001483 at pt     4
 Maximum DWI gradient std dev =  0.073372770 at pt     1
 CORRECTOR INTEGRATION CONVERGENCE:
   Recorrection delta-x convergence threshold:    0.010000
   Delta-x Convergence Met
 Point Number:   1          Path Number:   1
   CHANGE IN THE REACTION COORDINATE =    0.29909
   NET REACTION COORDINATE UP TO THIS POINT =    0.29909
  # OF POINTS ALONG THE PATH =   1
  # OF STEPS =   1

 Calculating another point on the path.
 IRC-IRC-IRC-IRC-IRC-IRC-IRC-IRC-IRC-IRC-IRC-IRC-IRC-IRC-IRC-IRC-IRC-IRC
                          Input orientation:                          
 ---------------------------------------------------------------------
 Center     Atomic      Atomic             Coordinates (Angstroms)
 Number     Number       Type             X           Y           Z
 ---------------------------------------------------------------------
      1          6           0       -1.421613    0.842240   -0.270804
      2          6           0       -1.283849   -0.439914    0.272396
      3          8           0       -0.539172   -1.327371   -0.245994
      4          6           0        1.341464   -0.847169    0.200792
      5          6           0        1.383823    0.446638   -0.290574
      6          6           0        0.635792    1.455881    0.326431
      7          1           0       -2.102311    1.550599    0.197447
      8          1           0       -1.224481    0.988372   -1.327776
      9          1           0       -1.673234   -0.600904    1.295875
     10          1           0        1.805813   -1.664879   -0.339075
     11          1           0        1.177085   -1.029394    1.258338
     12          1           0        1.698438    0.595804   -1.321872
     13          1           0        0.613103    2.458267   -0.093009
     14          1           0        0.456626    1.412379    1.397526
 ---------------------------------------------------------------------
                    Distance matrix (angstroms):
                    1          2          3          4          5
     1  C    0.000000
     2  C    1.399273   0.000000
     3  O    2.342335   1.269193   0.000000
     4  C    3.272782   2.657678   1.991734   0.000000
     5  C    2.833261   2.866947   2.616679   1.384620   0.000000
     6  C    2.228489   2.698515   3.074850   2.412012   1.399577
     7  H    1.088292   2.153518   3.304959   4.196294   3.689177
     8  H    1.085083   2.145711   2.646236   3.505682   2.858761
     9  H    2.144868   1.106818   2.047245   3.216871   3.599968
    10  H    4.087370   3.379415   2.370977   1.084309   2.153818
    11  H    3.548876   2.715835   2.301596   1.085647   2.149544
    12  H    3.301545   3.536727   3.140544   2.127935   1.088489
    13  H    2.604463   3.483017   3.960076   3.397461   2.163260
    14  H    2.576076   2.779597   3.346491   2.705673   2.154537
                    6          7          8          9         10
     6  C    0.000000
     7  H    2.742776   0.000000
     8  H    2.532900   1.847427   0.000000
     9  H    3.240647   2.453490   3.100115   0.000000
    10  H    3.398675   5.089262   4.147282   3.988593   0.000000
    11  H    2.708882   4.305379   4.065326   2.882591   1.830538
    12  H    2.141460   4.203053   2.949170   4.433157   2.467408
    13  H    1.086840   2.877794   2.657435   4.063848   4.299237
    14  H    1.086848   2.829744   3.230042   2.932566   3.782275
                   11         12         13         14
    11  H    0.000000
    12  H    3.093632   0.000000
    13  H    3.782591   2.481295   0.000000
    14  H    2.549645   3.099035   1.827584   0.000000
 Symmetry turned off by external request.
 Stoichiometry    C5H8O
 Framework group  C1[X(C5H8O)]
 Deg. of freedom    36
 Full point group                 C1      NOp   1
 Rotational constants (GHZ):           4.8011904           3.8801678           2.4452422
 Standard basis: 6-31G(d) (6D, 7F)
   106 basis functions,   200 primitive gaussians,   106 cartesian basis functions
    23 alpha electrons       23 beta electrons
       nuclear repulsion energy       229.4627203702 Hartrees.
 NAtoms=   14 NActive=   14 NUniq=   14 SFac= 1.00D+00 NAtFMM=   60 NAOKFM=F Big=F
 Integral buffers will be    131072 words long.
 Raffenetti 2 integral format.
 Two-electron integral symmetry is turned off.
 One-electron integrals computed using PRISM.
 NBasis=   106 RedAO= T EigKep=  4.21D-03  NBF=   106
 NBsUse=   106 1.00D-06 EigRej= -1.00D+00 NBFU=   106
 Initial guess from the checkpoint file:  "claisen_ts_IRCF.chk"
 B after Tr=     0.000338    0.000242    0.000048
         Rot=    1.000000    0.000043   -0.000016   -0.000025 Ang=   0.01 deg.
 ExpMin= 1.61D-01 ExpMax= 5.48D+03 ExpMxC= 8.25D+02 IAcc=3 IRadAn=         5 AccDes= 0.00D+00
 Harris functional with IExCor=  402 and IRadAn=       5 diagonalized for initial guess.
 HarFok:  IExCor=  402 AccDes= 0.00D+00 IRadAn=         5 IDoV= 1 UseB2=F ITyADJ=14
 ICtDFT=  3500011 ScaDFX=  1.000000  1.000000  1.000000  1.000000
 FoFCou: FMM=F IPFlag=           0 FMFlag=      100000 FMFlg1=           0
         NFxFlg=           0 DoJE=T BraDBF=F KetDBF=T FulRan=T
         wScrn=  0.000000 ICntrl=       500 IOpCl=  0 I1Cent=   200000004 NGrid=           0
         NMat0=    1 NMatS0=      1 NMatT0=    0 NMatD0=    1 NMtDS0=    0 NMtDT0=    0
 Symmetry not used in FoFCou.
 Requested convergence on RMS density matrix=1.00D-08 within 128 cycles.
 Requested convergence on MAX density matrix=1.00D-06.
 Requested convergence on             energy=1.00D-06.
 No special actions if energy rises.
 Integral accuracy reduced to 1.0D-05 until final iterations.
 Initial convergence to 1.0D-05 achieved.  Increase integral accuracy.
 SCF Done:  E(RB3LYP) =  -270.462687407     A.U. after   13 cycles
            NFock= 13  Conv=0.77D-08     -V/T= 2.0096
 DoSCS=F DFT=T ScalE2(SS,OS)=  1.000000  1.000000
 Range of M.O.s used for correlation:     1   106
 NBasis=   106 NAE=    23 NBE=    23 NFC=     0 NFV=     0
 NROrb=    106 NOA=    23 NOB=    23 NVA=    83 NVB=    83
 Symmetrizing basis deriv contribution to polar:
 IMax=3 JMax=2 DiffMx= 0.00D+00
 Calling FoFJK, ICntrl=      2147 FMM=F ISym2X=0 I1Cent= 0 IOpClX= 0 NMat=1 NMatS=1 NMatT=0.
 -------------------------------------------------------------------
 Center     Atomic                   Forces (Hartrees/Bohr)
 Number     Number              X              Y              Z
 -------------------------------------------------------------------
      1        6           0.008036930    0.003768554    0.001295147
      2        6          -0.000334428   -0.001121147    0.000148542
      3        8          -0.008745376   -0.002411701   -0.001422506
      4        6           0.008770673    0.002291210    0.001732925
      5        6           0.000208004   -0.001106525   -0.000256747
      6        6          -0.008652359   -0.001801782   -0.001294754
      7        1           0.000527725    0.000253357    0.000100422
      8        1          -0.000221635   -0.000096179    0.000282038
      9        1          -0.000115261    0.000006725   -0.000007894
     10        1           0.000650933    0.000164270    0.000088024
     11        1           0.000016988    0.000042292   -0.000400928
     12        1           0.000025161    0.000004273   -0.000004628
     13        1          -0.000249792   -0.000099215    0.000004583
     14        1           0.000082437    0.000105869   -0.000264223
 -------------------------------------------------------------------
 Cartesian Forces:  Max     0.008770673 RMS     0.002819013
 IRC-IRC-IRC-IRC-IRC-IRC-IRC-IRC-IRC-IRC-IRC-IRC-IRC-IRC-IRC-IRC-IRC-IRC
 Pt  2 Step number   1 out of a maximum of 200
 Modified Bulirsch-Stoer Extrapolation Cycles:
    EPS =    0.000010000000000
      PEZero:  N= 2 I= 1 D=  1.56D-03 Err=  4.84D-05
      PEZero:  N= 3 I= 2 D=  1.56D-03 Err=  3.22D-05
      PEZero:  N= 3 I= 1 D=  3.12D-03 Err=  6.79D-08
 Maximum DWI energy   std dev =  0.000001453 at pt    32
 Maximum DWI gradient std dev =  0.053454264 at pt    55
 CORRECTOR INTEGRATION CONVERGENCE:
   Recorrection delta-x convergence threshold:    0.010000
   Delta-x Convergence Met
 Point Number:   2          Path Number:   1
   CHANGE IN THE REACTION COORDINATE =    0.29899
   NET REACTION COORDINATE UP TO THIS POINT =    0.59807
  # OF POINTS ALONG THE PATH =   2
  # OF STEPS =   1

 Calculating another point on the path.
 IRC-IRC-IRC-IRC-IRC-IRC-IRC-IRC-IRC-IRC-IRC-IRC-IRC-IRC-IRC-IRC-IRC-IRC
                          Input orientation:                          
 ---------------------------------------------------------------------
 Center     Atomic      Atomic             Coordinates (Angstroms)
 Number     Number       Type             X           Y           Z
 ---------------------------------------------------------------------
      1          6           0       -1.401074    0.851961   -0.266339
      2          6           0       -1.284149   -0.443433    0.272310
      3          8           0       -0.555704   -1.331595   -0.248390
      4          6           0        1.363577   -0.841111    0.204092
      5          6           0        1.384012    0.443782   -0.290921
      6          6           0        0.613753    1.451135    0.322142
      7          1           0       -2.084328    1.559123    0.200853
      8          1           0       -1.227301    0.986516   -1.329449
      9          1           0       -1.677169   -0.599890    1.296282
     10          1           0        1.824179   -1.660207   -0.336747
     11          1           0        1.175036   -1.029439    1.256243
     12          1           0        1.699259    0.595838   -1.321683
     13          1           0        0.603748    2.455649   -0.093642
     14          1           0        0.456652    1.414734    1.397485
 ---------------------------------------------------------------------
                    Distance matrix (angstroms):
                    1          2          3          4          5
     1  C    0.000000
     2  C    1.407785   0.000000
     3  O    2.341556   1.261186   0.000000
     4  C    3.275835   2.678294   2.031984   0.000000
     5  C    2.814945   2.867657   2.629880   1.377100   0.000000
     6  C    2.182853   2.682145   3.071925   2.414656   1.408512
     7  H    1.088661   2.157689   3.300721   4.201093   3.676304
     8  H    1.085590   2.147933   2.644498   3.522019   2.862176
     9  H    2.150786   1.107909   2.044282   3.239939   3.602679
    10  H    4.088790   3.393110   2.404088   1.084241   2.150027
    11  H    3.534723   2.712770   2.313154   1.085374   2.146571
    12  H    3.285029   3.538590   3.154650   2.122616   1.088565
    13  H    2.573121   3.478901   3.963772   3.396264   2.166873
    14  H    2.556594   2.783737   3.357989   2.708419   2.157188
                    6          7          8          9         10
     6  C    0.000000
     7  H    2.702964   0.000000
     8  H    2.516566   1.845047   0.000000
     9  H    3.225520   2.455011   3.100569   0.000000
    10  H    3.402898   5.092105   4.159583   4.006308   0.000000
    11  H    2.709396   4.293944   4.064615   2.884648   1.832177
    12  H    2.147561   4.190652   2.952531   4.436640   2.464842
    13  H    1.087209   2.848901   2.652981   4.058422   4.299863
    14  H    1.087368   2.812358   3.233456   2.936349   3.785888
                   11         12         13         14
    11  H    0.000000
    12  H    3.092255   0.000000
    13  H    3.780793   2.483370   0.000000
    14  H    2.551471   3.099764   1.824445   0.000000
 Symmetry turned off by external request.
 Stoichiometry    C5H8O
 Framework group  C1[X(C5H8O)]
 Deg. of freedom    36
 Full point group                 C1      NOp   1
 Rotational constants (GHZ):           4.7959189           3.8823533           2.4442142
 Standard basis: 6-31G(d) (6D, 7F)
   106 basis functions,   200 primitive gaussians,   106 cartesian basis functions
    23 alpha electrons       23 beta electrons
       nuclear repulsion energy       229.3942010658 Hartrees.
 NAtoms=   14 NActive=   14 NUniq=   14 SFac= 1.00D+00 NAtFMM=   60 NAOKFM=F Big=F
 Integral buffers will be    131072 words long.
 Raffenetti 2 integral format.
 Two-electron integral symmetry is turned off.
 One-electron integrals computed using PRISM.
 NBasis=   106 RedAO= T EigKep=  4.21D-03  NBF=   106
 NBsUse=   106 1.00D-06 EigRej= -1.00D+00 NBFU=   106
 Initial guess from the checkpoint file:  "claisen_ts_IRCF.chk"
 B after Tr=     0.000408    0.000254    0.000045
         Rot=    1.000000    0.000029    0.000007   -0.000033 Ang=   0.01 deg.
 ExpMin= 1.61D-01 ExpMax= 5.48D+03 ExpMxC= 8.25D+02 IAcc=3 IRadAn=         5 AccDes= 0.00D+00
 Harris functional with IExCor=  402 and IRadAn=       5 diagonalized for initial guess.
 HarFok:  IExCor=  402 AccDes= 0.00D+00 IRadAn=         5 IDoV= 1 UseB2=F ITyADJ=14
 ICtDFT=  3500011 ScaDFX=  1.000000  1.000000  1.000000  1.000000
 FoFCou: FMM=F IPFlag=           0 FMFlag=      100000 FMFlg1=           0
         NFxFlg=           0 DoJE=T BraDBF=F KetDBF=T FulRan=T
         wScrn=  0.000000 ICntrl=       500 IOpCl=  0 I1Cent=   200000004 NGrid=           0
         NMat0=    1 NMatS0=      1 NMatT0=    0 NMatD0=    1 NMtDS0=    0 NMtDT0=    0
 Symmetry not used in FoFCou.
 Requested convergence on RMS density matrix=1.00D-08 within 128 cycles.
 Requested convergence on MAX density matrix=1.00D-06.
 Requested convergence on             energy=1.00D-06.
 No special actions if energy rises.
 Integral accuracy reduced to 1.0D-05 until final iterations.
 Initial convergence to 1.0D-05 achieved.  Increase integral accuracy.
 SCF Done:  E(RB3LYP) =  -270.464603689     A.U. after   13 cycles
            NFock= 13  Conv=0.75D-08     -V/T= 2.0096
 DoSCS=F DFT=T ScalE2(SS,OS)=  1.000000  1.000000
 Range of M.O.s used for correlation:     1   106
 NBasis=   106 NAE=    23 NBE=    23 NFC=     0 NFV=     0
 NROrb=    106 NOA=    23 NOB=    23 NVA=    83 NVB=    83
 Symmetrizing basis deriv contribution to polar:
 IMax=3 JMax=2 DiffMx= 0.00D+00
 Calling FoFJK, ICntrl=      2147 FMM=F ISym2X=0 I1Cent= 0 IOpClX= 0 NMat=1 NMatS=1 NMatT=0.
 -------------------------------------------------------------------
 Center     Atomic                   Forces (Hartrees/Bohr)
 Number     Number              X              Y              Z
 -------------------------------------------------------------------
      1        6           0.012300309    0.005575918    0.002292072
      2        6          -0.000383856   -0.001632009    0.000142546
      3        8          -0.012338392   -0.003400171   -0.001929219
      4        6           0.012318705    0.003288195    0.002229604
      5        6           0.000105189   -0.001545527   -0.000322456
      6        6          -0.013017321   -0.002729149   -0.002327391
      7        1           0.000780429    0.000361420    0.000148937
      8        1          -0.000240977   -0.000115802    0.000315499
      9        1          -0.000206979   -0.000001487   -0.000022090
     10        1           0.000959129    0.000216353    0.000124700
     11        1          -0.000018859    0.000015594   -0.000403650
     12        1           0.000060750    0.000021939    0.000010327
     13        1          -0.000360446   -0.000178481    0.000014694
     14        1           0.000042317    0.000123206   -0.000273575
 -------------------------------------------------------------------
 Cartesian Forces:  Max     0.013017321 RMS     0.004119424
 IRC-IRC-IRC-IRC-IRC-IRC-IRC-IRC-IRC-IRC-IRC-IRC-IRC-IRC-IRC-IRC-IRC-IRC
 Pt  3 Step number   1 out of a maximum of 200
 Modified Bulirsch-Stoer Extrapolation Cycles:
    EPS =    0.000010000000000
      PEZero:  N= 2 I= 1 D=  1.56D-03 Err=  5.14D-05
      PEZero:  N= 3 I= 2 D=  1.56D-03 Err=  3.42D-05
      PEZero:  N= 3 I= 1 D=  3.12D-03 Err=  6.99D-08
 Maximum DWI energy   std dev =  0.000001633 at pt    29
 Maximum DWI gradient std dev =  0.033477795 at pt    28
 CORRECTOR INTEGRATION CONVERGENCE:
   Recorrection delta-x convergence threshold:    0.010000
   Delta-x Convergence Met
 Point Number:   3          Path Number:   1
   CHANGE IN THE REACTION COORDINATE =    0.29902
   NET REACTION COORDINATE UP TO THIS POINT =    0.89710
  # OF POINTS ALONG THE PATH =   3
  # OF STEPS =   1

 Calculating another point on the path.
 IRC-IRC-IRC-IRC-IRC-IRC-IRC-IRC-IRC-IRC-IRC-IRC-IRC-IRC-IRC-IRC-IRC-IRC
                          Input orientation:                          
 ---------------------------------------------------------------------
 Center     Atomic      Atomic             Coordinates (Angstroms)
 Number     Number       Type             X           Y           Z
 ---------------------------------------------------------------------
      1          6           0       -1.379558    0.861816   -0.261527
      2          6           0       -1.284484   -0.446709    0.272347
      3          8           0       -0.571511   -1.335770   -0.250680
      4          6           0        1.384612   -0.835387    0.207234
      5          6           0        1.383977    0.441033   -0.291352
      6          6           0        0.591001    1.446247    0.317487
      7          1           0       -2.066674    1.566973    0.204088
      8          1           0       -1.229592    0.985011   -1.330190
      9          1           0       -1.682086   -0.599637    1.296150
     10          1           0        1.843568   -1.655204   -0.334007
     11          1           0        1.173147   -1.029811    1.253745
     12          1           0        1.700797    0.596221   -1.321256
     13          1           0        0.595337    2.453075   -0.093991
     14          1           0        0.455817    1.416846    1.396665
 ---------------------------------------------------------------------
                    Distance matrix (angstroms):
                    1          2          3          4          5
     1  C    0.000000
     2  C    1.416439   0.000000
     3  O    2.341462   1.253921   0.000000
     4  C    3.277328   2.698033   2.070383   0.000000
     5  C    2.795545   2.868192   2.642464   1.370342   0.000000
     6  C    2.135397   2.665101   3.068202   2.418228   1.417727
     7  H    1.089115   2.161342   3.296702   4.205083   3.663358
     8  H    1.086143   2.149643   2.642809   3.537173   2.864584
     9  H    2.157250   1.108894   2.041556   3.262814   3.606092
    10  H    4.090133   3.407761   2.437537   1.084289   2.146452
    11  H    3.520030   2.709815   2.323949   1.085220   2.143631
    12  H    3.268356   3.541070   3.168928   2.117960   1.088650
    13  H    2.541729   3.475152   3.967548   3.395243   2.170073
    14  H    2.535007   2.786678   3.368389   2.711081   2.159420
                    6          7          8          9         10
     6  C    0.000000
     7  H    2.662831   0.000000
     8  H    2.498427   1.842116   0.000000
     9  H    3.210973   2.456564   3.100568   0.000000
    10  H    3.407692   5.095289   4.172222   4.025155   0.000000
    11  H    2.710412   4.282699   4.063174   2.887769   1.833449
    12  H    2.153989   4.178860   2.956082   4.441259   2.462511
    13  H    1.087675   2.821406   2.648352   4.054405   4.300424
    14  H    1.088009   2.794233   3.234629   2.940567   3.789270
                   11         12         13         14
    11  H    0.000000
    12  H    3.090796   0.000000
    13  H    3.778988   2.485182   0.000000
    14  H    2.553648   3.100080   1.820794   0.000000
 Symmetry turned off by external request.
 Stoichiometry    C5H8O
 Framework group  C1[X(C5H8O)]
 Deg. of freedom    36
 Full point group                 C1      NOp   1
 Rotational constants (GHZ):           4.7910125           3.8861573           2.4436527
 Standard basis: 6-31G(d) (6D, 7F)
   106 basis functions,   200 primitive gaussians,   106 cartesian basis functions
    23 alpha electrons       23 beta electrons
       nuclear repulsion energy       229.3571359413 Hartrees.
 NAtoms=   14 NActive=   14 NUniq=   14 SFac= 1.00D+00 NAtFMM=   60 NAOKFM=F Big=F
 Integral buffers will be    131072 words long.
 Raffenetti 2 integral format.
 Two-electron integral symmetry is turned off.
 One-electron integrals computed using PRISM.
 NBasis=   106 RedAO= T EigKep=  4.22D-03  NBF=   106
 NBsUse=   106 1.00D-06 EigRej= -1.00D+00 NBFU=   106
 Initial guess from the checkpoint file:  "claisen_ts_IRCF.chk"
 B after Tr=     0.000432    0.000234    0.000041
         Rot=    1.000000    0.000015    0.000025   -0.000038 Ang=   0.01 deg.
 ExpMin= 1.61D-01 ExpMax= 5.48D+03 ExpMxC= 8.25D+02 IAcc=3 IRadAn=         5 AccDes= 0.00D+00
 Harris functional with IExCor=  402 and IRadAn=       5 diagonalized for initial guess.
 HarFok:  IExCor=  402 AccDes= 0.00D+00 IRadAn=         5 IDoV= 1 UseB2=F ITyADJ=14
 ICtDFT=  3500011 ScaDFX=  1.000000  1.000000  1.000000  1.000000
 FoFCou: FMM=F IPFlag=           0 FMFlag=      100000 FMFlg1=           0
         NFxFlg=           0 DoJE=T BraDBF=F KetDBF=T FulRan=T
         wScrn=  0.000000 ICntrl=       500 IOpCl=  0 I1Cent=   200000004 NGrid=           0
         NMat0=    1 NMatS0=      1 NMatT0=    0 NMatD0=    1 NMtDS0=    0 NMtDT0=    0
 Symmetry not used in FoFCou.
 Requested convergence on RMS density matrix=1.00D-08 within 128 cycles.
 Requested convergence on MAX density matrix=1.00D-06.
 Requested convergence on             energy=1.00D-06.
 No special actions if energy rises.
 Integral accuracy reduced to 1.0D-05 until final iterations.
 Initial convergence to 1.0D-05 achieved.  Increase integral accuracy.
 SCF Done:  E(RB3LYP) =  -270.467218444     A.U. after   13 cycles
            NFock= 13  Conv=0.75D-08     -V/T= 2.0096
 DoSCS=F DFT=T ScalE2(SS,OS)=  1.000000  1.000000
 Range of M.O.s used for correlation:     1   106
 NBasis=   106 NAE=    23 NBE=    23 NFC=     0 NFV=     0
 NROrb=    106 NOA=    23 NOB=    23 NVA=    83 NVB=    83
 Symmetrizing basis deriv contribution to polar:
 IMax=3 JMax=2 DiffMx= 0.00D+00
 Calling FoFJK, ICntrl=      2147 FMM=F ISym2X=0 I1Cent= 0 IOpClX= 0 NMat=1 NMatS=1 NMatT=0.
 -------------------------------------------------------------------
 Center     Atomic                   Forces (Hartrees/Bohr)
 Number     Number              X              Y              Z
 -------------------------------------------------------------------
      1        6           0.016599028    0.007271652    0.003395164
      2        6          -0.000459377   -0.001969577    0.000198388
      3        8          -0.015291142   -0.004338233   -0.002365808
      4        6           0.015192005    0.004042323    0.002622993
      5        6          -0.000110984   -0.001876253   -0.000421126
      6        6          -0.017292904   -0.003668386   -0.003426582
      7        1           0.001037496    0.000451288    0.000193212
      8        1          -0.000218923   -0.000115222    0.000350107
      9        1          -0.000332062   -0.000028496   -0.000058043
     10        1           0.001280683    0.000306591    0.000186622
     11        1          -0.000030326   -0.000006841   -0.000421270
     12        1           0.000118272    0.000045771    0.000035651
     13        1          -0.000449646   -0.000244958    0.000029786
     14        1          -0.000042122    0.000130341   -0.000319094
 -------------------------------------------------------------------
 Cartesian Forces:  Max     0.017292904 RMS     0.005318952
 IRC-IRC-IRC-IRC-IRC-IRC-IRC-IRC-IRC-IRC-IRC-IRC-IRC-IRC-IRC-IRC-IRC-IRC
 Pt  4 Step number   1 out of a maximum of 200
 Modified Bulirsch-Stoer Extrapolation Cycles:
    EPS =    0.000010000000000
      PEZero:  N= 2 I= 1 D=  1.56D-03 Err=  5.37D-05
      PEZero:  N= 3 I= 2 D=  1.56D-03 Err=  3.58D-05
      PEZero:  N= 3 I= 1 D=  3.12D-03 Err=  5.82D-08
 Maximum DWI energy   std dev =  0.000002672 at pt    36
 Maximum DWI gradient std dev =  0.024286863 at pt    28
 CORRECTOR INTEGRATION CONVERGENCE:
   Recorrection delta-x convergence threshold:    0.010000
   Delta-x Convergence Met
 Point Number:   4          Path Number:   1
   CHANGE IN THE REACTION COORDINATE =    0.29903
   NET REACTION COORDINATE UP TO THIS POINT =    1.19613
  # OF POINTS ALONG THE PATH =   4
  # OF STEPS =   1

 Calculating another point on the path.
 IRC-IRC-IRC-IRC-IRC-IRC-IRC-IRC-IRC-IRC-IRC-IRC-IRC-IRC-IRC-IRC-IRC-IRC
                          Input orientation:                          
 ---------------------------------------------------------------------
 Center     Atomic      Atomic             Coordinates (Angstroms)
 Number     Number       Type             X           Y           Z
 ---------------------------------------------------------------------
      1          6           0       -1.357109    0.871723   -0.256350
      2          6           0       -1.284867   -0.449661    0.272509
      3          8           0       -0.586581   -1.339948   -0.252883
      4          6           0        1.404525   -0.830017    0.210223
      5          6           0        1.383659    0.438460   -0.291865
      6          6           0        0.567647    1.441201    0.312452
      7          1           0       -2.048926    1.574386    0.207296
      8          1           0       -1.231018    0.983921   -1.329914
      9          1           0       -1.688084   -0.600050    1.295424
     10          1           0        1.864092   -1.649758   -0.330823
     11          1           0        1.171695   -1.030417    1.250935
     12          1           0        1.703023    0.596984   -1.320570
     13          1           0        0.587563    2.450449   -0.094130
     14          1           0        0.453764    1.418586    1.394944
 ---------------------------------------------------------------------
                    Distance matrix (angstroms):
                    1          2          3          4          5
     1  C    0.000000
     2  C    1.425119   0.000000
     3  O    2.342053   1.247498   0.000000
     4  C    3.277229   2.716869   2.106893   0.000000
     5  C    2.775029   2.868503   2.654449   1.364391   0.000000
     6  C    2.086270   2.647406   3.063761   2.422653   1.427082
     7  H    1.089640   2.164440   3.292956   4.208026   3.649950
     8  H    1.086750   2.150770   2.641148   3.550842   2.865591
     9  H    2.164177   1.109755   2.039121   3.285541   3.610207
    10  H    4.091399   3.423476   2.471408   1.084393   2.143126
    11  H    3.504981   2.707267   2.334269   1.085104   2.140738
    12  H    3.251530   3.544129   3.183386   2.113944   1.088741
    13  H    2.510067   3.471463   3.971262   3.394336   2.172778
    14  H    2.510994   2.788018   3.377449   2.713619   2.161175
                    6          7          8          9         10
     6  C    0.000000
     7  H    2.622070   0.000000
     8  H    2.478239   1.838651   0.000000
     9  H    3.197071   2.458129   3.100043   0.000000
    10  H    3.413005   5.098666   4.184992   4.045309   0.000000
    11  H    2.711922   4.271602   4.060957   2.892323   1.834382
    12  H    2.160680   4.167350   2.959460   4.447013   2.460365
    13  H    1.088249   2.794534   2.642935   4.051539   4.300843
    14  H    1.088701   2.774570   3.232998   2.944878   3.792365
                   11         12         13         14
    11  H    0.000000
    12  H    3.089236   0.000000
    13  H    3.777146   2.486712   0.000000
    14  H    2.556125   3.099950   1.816586   0.000000
 Symmetry turned off by external request.
 Stoichiometry    C5H8O
 Framework group  C1[X(C5H8O)]
 Deg. of freedom    36
 Full point group                 C1      NOp   1
 Rotational constants (GHZ):           4.7865405           3.8916559           2.4435896
 Standard basis: 6-31G(d) (6D, 7F)
   106 basis functions,   200 primitive gaussians,   106 cartesian basis functions
    23 alpha electrons       23 beta electrons
       nuclear repulsion energy       229.3529128786 Hartrees.
 NAtoms=   14 NActive=   14 NUniq=   14 SFac= 1.00D+00 NAtFMM=   60 NAOKFM=F Big=F
 Integral buffers will be    131072 words long.
 Raffenetti 2 integral format.
 Two-electron integral symmetry is turned off.
 One-electron integrals computed using PRISM.
 NBasis=   106 RedAO= T EigKep=  4.24D-03  NBF=   106
 NBsUse=   106 1.00D-06 EigRej= -1.00D+00 NBFU=   106
 Initial guess from the checkpoint file:  "claisen_ts_IRCF.chk"
 B after Tr=     0.000464    0.000222    0.000040
         Rot=    1.000000    0.000002    0.000044   -0.000044 Ang=   0.01 deg.
 ExpMin= 1.61D-01 ExpMax= 5.48D+03 ExpMxC= 8.25D+02 IAcc=3 IRadAn=         5 AccDes= 0.00D+00
 Harris functional with IExCor=  402 and IRadAn=       5 diagonalized for initial guess.
 HarFok:  IExCor=  402 AccDes= 0.00D+00 IRadAn=         5 IDoV= 1 UseB2=F ITyADJ=14
 ICtDFT=  3500011 ScaDFX=  1.000000  1.000000  1.000000  1.000000
 FoFCou: FMM=F IPFlag=           0 FMFlag=      100000 FMFlg1=           0
         NFxFlg=           0 DoJE=T BraDBF=F KetDBF=T FulRan=T
         wScrn=  0.000000 ICntrl=       500 IOpCl=  0 I1Cent=   200000004 NGrid=           0
         NMat0=    1 NMatS0=      1 NMatT0=    0 NMatD0=    1 NMtDS0=    0 NMtDT0=    0
 Symmetry not used in FoFCou.
 Requested convergence on RMS density matrix=1.00D-08 within 128 cycles.
 Requested convergence on MAX density matrix=1.00D-06.
 Requested convergence on             energy=1.00D-06.
 No special actions if energy rises.
 Integral accuracy reduced to 1.0D-05 until final iterations.
 Initial convergence to 1.0D-05 achieved.  Increase integral accuracy.
 SCF Done:  E(RB3LYP) =  -270.470476248     A.U. after   13 cycles
            NFock= 13  Conv=0.74D-08     -V/T= 2.0096
 DoSCS=F DFT=T ScalE2(SS,OS)=  1.000000  1.000000
 Range of M.O.s used for correlation:     1   106
 NBasis=   106 NAE=    23 NBE=    23 NFC=     0 NFV=     0
 NROrb=    106 NOA=    23 NOB=    23 NVA=    83 NVB=    83
 Symmetrizing basis deriv contribution to polar:
 IMax=3 JMax=2 DiffMx= 0.00D+00
 G2DrvN: will do    15 centers at a time, making    1 passes.
 Calling FoFCou, ICntrl=  3107 FMM=F I1Cent=   0 AccDes= 0.00D+00.
 End of G2Drv F.D. properties file   721 does not exist.
 End of G2Drv F.D. properties file   722 does not exist.
 End of G2Drv F.D. properties file   788 does not exist.
          IDoAtm=11111111111111
          Differentiating once with respect to nuclear coordinates.
 Keep R1 ints in memory in canonical form, NReq=38354418.
          There are    45 degrees of freedom in the 1st order CPHF.  IDoFFX=6 NUNeed=     0.
     39 vectors produced by pass  0 Test12= 4.24D-15 2.22D-09 XBig12= 1.14D-01 1.10D-01.
 AX will form    39 AO Fock derivatives at one time.
     39 vectors produced by pass  1 Test12= 4.24D-15 2.22D-09 XBig12= 1.37D-02 3.57D-02.
     39 vectors produced by pass  2 Test12= 4.24D-15 2.22D-09 XBig12= 9.96D-05 1.92D-03.
     39 vectors produced by pass  3 Test12= 4.24D-15 2.22D-09 XBig12= 2.94D-07 1.06D-04.
     39 vectors produced by pass  4 Test12= 4.24D-15 2.22D-09 XBig12= 3.01D-10 2.18D-06.
     23 vectors produced by pass  5 Test12= 4.24D-15 2.22D-09 XBig12= 2.20D-13 7.93D-08.
 InvSVY:  IOpt=1 It=  1 EMax= 2.44D-15
 Solved reduced A of dimension   218 with    39 vectors.
 End of Minotr F.D. properties file   721 does not exist.
 End of Minotr F.D. properties file   722 does not exist.
 End of Minotr F.D. properties file   788 does not exist.
 Calling FoFJK, ICntrl=    100147 FMM=F ISym2X=0 I1Cent= 0 IOpClX= 0 NMat=1 NMatS=1 NMatT=0.
 -------------------------------------------------------------------
 Center     Atomic                   Forces (Hartrees/Bohr)
 Number     Number              X              Y              Z
 -------------------------------------------------------------------
      1        6           0.020776993    0.008779219    0.004552423
      2        6          -0.000499045   -0.002190390    0.000260558
      3        8          -0.017683040   -0.005146601   -0.002692028
      4        6           0.017420989    0.004645012    0.002889006
      5        6          -0.000421211   -0.002119486   -0.000528610
      6        6          -0.021303437   -0.004576262   -0.004596128
      7        1           0.001275731    0.000516959    0.000231201
      8        1          -0.000161777   -0.000096880    0.000390067
      9        1          -0.000482528   -0.000066364   -0.000113800
     10        1           0.001605994    0.000405430    0.000257966
     11        1          -0.000034383   -0.000043081   -0.000412963
     12        1           0.000186111    0.000082400    0.000067344
     13        1          -0.000521122   -0.000310116    0.000048100
     14        1          -0.000159273    0.000120159   -0.000353136
 -------------------------------------------------------------------
 Cartesian Forces:  Max     0.021303437 RMS     0.006401707
 IRC-IRC-IRC-IRC-IRC-IRC-IRC-IRC-IRC-IRC-IRC-IRC-IRC-IRC-IRC-IRC-IRC-IRC
 Pt  5 Step number   1 out of a maximum of 200
 Modified Bulirsch-Stoer Extrapolation Cycles:
    EPS =    0.000010000000000
      PEZero:  N= 2 I= 1 D=  1.56D-03 Err=  5.23D-05
      PEZero:  N= 3 I= 2 D=  1.56D-03 Err=  3.48D-05
      PEZero:  N= 3 I= 1 D=  3.12D-03 Err=  7.27D-08
 Maximum DWI energy   std dev =  0.000004314 at pt    43
 Maximum DWI gradient std dev =  0.013238249 at pt    64
 CORRECTOR INTEGRATION CONVERGENCE:
   Recorrection delta-x convergence threshold:    0.010000
   Delta-x Convergence Met
 Point Number:   5          Path Number:   1
   CHANGE IN THE REACTION COORDINATE =    0.29904
   NET REACTION COORDINATE UP TO THIS POINT =    1.49517
  # OF POINTS ALONG THE PATH =   5
  # OF STEPS =   1

 Calculating another point on the path.
 IRC-IRC-IRC-IRC-IRC-IRC-IRC-IRC-IRC-IRC-IRC-IRC-IRC-IRC-IRC-IRC-IRC-IRC
                          Input orientation:                          
 ---------------------------------------------------------------------
 Center     Atomic      Atomic             Coordinates (Angstroms)
 Number     Number       Type             X           Y           Z
 ---------------------------------------------------------------------
      1          6           0       -1.333753    0.881537   -0.250780
      2          6           0       -1.285279   -0.452212    0.272741
      3          8           0       -0.600996   -1.344089   -0.254994
      4          6           0        1.423330   -0.824946    0.213079
      5          6           0        1.383043    0.436095   -0.292446
      6          6           0        0.543817    1.435980    0.307010
      7          1           0       -2.031640    1.580851    0.210340
      8          1           0       -1.231865    0.983099   -1.328442
      9          1           0       -1.695234   -0.601052    1.293972
     10          1           0        1.885520   -1.643947   -0.327203
     11          1           0        1.170646   -1.031411    1.247847
     12          1           0        1.705839    0.598212   -1.319609
     13          1           0        0.580719    2.447607   -0.093961
     14          1           0        0.450735    1.419838    1.392304
 ---------------------------------------------------------------------
                    Distance matrix (angstroms):
                    1          2          3          4          5
     1  C    0.000000
     2  C    1.433636   0.000000
     3  O    2.343153   1.241851   0.000000
     4  C    3.275478   2.734786   2.141611   0.000000
     5  C    2.753386   2.868530   2.665871   1.359192   0.000000
     6  C    2.035634   2.629075   3.058632   2.427788   1.436461
     7  H    1.090283   2.166632   3.289157   4.210069   3.636388
     8  H    1.087222   2.150990   2.639336   3.563057   2.865353
     9  H    2.171404   1.110463   2.036850   3.308157   3.614994
    10  H    4.092387   3.440077   2.505572   1.084567   2.140156
    11  H    3.489594   2.705156   2.344145   1.084998   2.138034
    12  H    3.234469   3.547641   3.198035   2.110527   1.088827
    13  H    2.478380   3.467761   3.974838   3.393209   2.174695
    14  H    2.484731   2.787783   3.385118   2.715800   2.162251
                    6          7          8          9         10
     6  C    0.000000
     7  H    2.581339   0.000000
     8  H    2.456187   1.834338   0.000000
     9  H    3.183856   2.459294   3.098596   0.000000
    10  H    3.418823   5.102197   4.197850   4.066649   0.000000
    11  H    2.714058   4.260865   4.058026   2.898380   1.834945
    12  H    2.167497   4.156329   2.962824   4.453800   2.458543
    13  H    1.088820   2.769166   2.637079   4.049770   4.300898
    14  H    1.089398   2.754114   3.228675   2.949380   3.795009
                   11         12         13         14
    11  H    0.000000
    12  H    3.087707   0.000000
    13  H    3.775186   2.487643   0.000000
    14  H    2.558860   3.099166   1.811681   0.000000
 Symmetry turned off by external request.
 Stoichiometry    C5H8O
 Framework group  C1[X(C5H8O)]
 Deg. of freedom    36
 Full point group                 C1      NOp   1
 Rotational constants (GHZ):           4.7830702           3.8986803           2.4440629
 Standard basis: 6-31G(d) (6D, 7F)
   106 basis functions,   200 primitive gaussians,   106 cartesian basis functions
    23 alpha electrons       23 beta electrons
       nuclear repulsion energy       229.3876692018 Hartrees.
 NAtoms=   14 NActive=   14 NUniq=   14 SFac= 1.00D+00 NAtFMM=   60 NAOKFM=F Big=F
 Integral buffers will be    131072 words long.
 Raffenetti 2 integral format.
 Two-electron integral symmetry is turned off.
 One-electron integrals computed using PRISM.
 NBasis=   106 RedAO= T EigKep=  4.26D-03  NBF=   106
 NBsUse=   106 1.00D-06 EigRej= -1.00D+00 NBFU=   106
 Initial guess from the checkpoint file:  "claisen_ts_IRCF.chk"
 B after Tr=     0.000467    0.000182    0.000038
         Rot=    1.000000   -0.000013    0.000060   -0.000048 Ang=  -0.01 deg.
 ExpMin= 1.61D-01 ExpMax= 5.48D+03 ExpMxC= 8.25D+02 IAcc=3 IRadAn=         5 AccDes= 0.00D+00
 Harris functional with IExCor=  402 and IRadAn=       5 diagonalized for initial guess.
 HarFok:  IExCor=  402 AccDes= 0.00D+00 IRadAn=         5 IDoV= 1 UseB2=F ITyADJ=14
 ICtDFT=  3500011 ScaDFX=  1.000000  1.000000  1.000000  1.000000
 FoFCou: FMM=F IPFlag=           0 FMFlag=      100000 FMFlg1=           0
         NFxFlg=           0 DoJE=T BraDBF=F KetDBF=T FulRan=T
         wScrn=  0.000000 ICntrl=       500 IOpCl=  0 I1Cent=   200000004 NGrid=           0
         NMat0=    1 NMatS0=      1 NMatT0=    0 NMatD0=    1 NMtDS0=    0 NMtDT0=    0
 Symmetry not used in FoFCou.
 Requested convergence on RMS density matrix=1.00D-08 within 128 cycles.
 Requested convergence on MAX density matrix=1.00D-06.
 Requested convergence on             energy=1.00D-06.
 No special actions if energy rises.
 Integral accuracy reduced to 1.0D-05 until final iterations.
 Initial convergence to 1.0D-05 achieved.  Increase integral accuracy.
 SCF Done:  E(RB3LYP) =  -270.474310296     A.U. after   13 cycles
            NFock= 13  Conv=0.65D-08     -V/T= 2.0096
 DoSCS=F DFT=T ScalE2(SS,OS)=  1.000000  1.000000
 Range of M.O.s used for correlation:     1   106
 NBasis=   106 NAE=    23 NBE=    23 NFC=     0 NFV=     0
 NROrb=    106 NOA=    23 NOB=    23 NVA=    83 NVB=    83
 Symmetrizing basis deriv contribution to polar:
 IMax=3 JMax=2 DiffMx= 0.00D+00
 Calling FoFJK, ICntrl=      2147 FMM=F ISym2X=0 I1Cent= 0 IOpClX= 0 NMat=1 NMatS=1 NMatT=0.
 -------------------------------------------------------------------
 Center     Atomic                   Forces (Hartrees/Bohr)
 Number     Number              X              Y              Z
 -------------------------------------------------------------------
      1        6           0.024548083    0.010123984    0.005803702
      2        6          -0.000481479   -0.002382219    0.000345654
      3        8          -0.019559900   -0.005855313   -0.002937527
      4        6           0.019083571    0.005076346    0.003021054
      5        6          -0.000810567   -0.002294403   -0.000646869
      6        6          -0.024854462   -0.005455062   -0.005753832
      7        1           0.001547655    0.000574305    0.000274056
      8        1          -0.000021054   -0.000050578    0.000302590
      9        1          -0.000664114   -0.000103770   -0.000165366
     10        1           0.001927088    0.000534915    0.000336470
     11        1          -0.000034911   -0.000073368   -0.000365642
     12        1           0.000263456    0.000121594    0.000098395
     13        1          -0.000615244   -0.000307646    0.000031563
     14        1          -0.000328121    0.000091217   -0.000344249
 -------------------------------------------------------------------
 Cartesian Forces:  Max     0.024854462 RMS     0.007343239
 IRC-IRC-IRC-IRC-IRC-IRC-IRC-IRC-IRC-IRC-IRC-IRC-IRC-IRC-IRC-IRC-IRC-IRC
 Pt  6 Step number   1 out of a maximum of 200
 Modified Bulirsch-Stoer Extrapolation Cycles:
    EPS =    0.000010000000000
      PEZero:  N= 2 I= 1 D=  1.56D-03 Err=  4.66D-05
      PEZero:  N= 3 I= 2 D=  1.56D-03 Err=  3.10D-05
      PEZero:  N= 3 I= 1 D=  3.12D-03 Err=  5.82D-08
 Maximum DWI energy   std dev =  0.000002213 at pt    32
 Maximum DWI gradient std dev =  0.007691528 at pt    57
 CORRECTOR INTEGRATION CONVERGENCE:
   Recorrection delta-x convergence threshold:    0.010000
   Delta-x Convergence Met
 Point Number:   6          Path Number:   1
   CHANGE IN THE REACTION COORDINATE =    0.29905
   NET REACTION COORDINATE UP TO THIS POINT =    1.79423
  # OF POINTS ALONG THE PATH =   6
  # OF STEPS =   1

 Calculating another point on the path.
 IRC-IRC-IRC-IRC-IRC-IRC-IRC-IRC-IRC-IRC-IRC-IRC-IRC-IRC-IRC-IRC-IRC-IRC
                          Input orientation:                          
 ---------------------------------------------------------------------
 Center     Atomic      Atomic             Coordinates (Angstroms)
 Number     Number       Type             X           Y           Z
 ---------------------------------------------------------------------
      1          6           0       -1.309879    0.891313   -0.244932
      2          6           0       -1.285648   -0.454586    0.273023
      3          8           0       -0.614917   -1.348223   -0.257017
      4          6           0        1.441337   -0.820084    0.215790
      5          6           0        1.382157    0.433866   -0.293064
      6          6           0        0.519750    1.430653    0.301288
      7          1           0       -2.013665    1.587414    0.213578
      8          1           0       -1.231404    0.982752   -1.326487
      9          1           0       -1.703318   -0.602352    1.292045
     10          1           0        1.907830   -1.637669   -0.323282
     11          1           0        1.169901   -1.032511    1.244815
     12          1           0        1.709070    0.599729   -1.318439
     13          1           0        0.573624    2.444697   -0.093864
     14          1           0        0.446484    1.420698    1.389217
 ---------------------------------------------------------------------
                    Distance matrix (angstroms):
                    1          2          3          4          5
     1  C    0.000000
     2  C    1.442328   0.000000
     3  O    2.344918   1.236693   0.000000
     4  C    3.272665   2.751966   2.175008   0.000000
     5  C    2.731050   2.868273   2.676835   1.354557   0.000000
     6  C    1.984133   2.610438   3.053084   2.433609   1.445885
     7  H    1.090919   2.168711   3.285714   4.211068   3.622012
     8  H    1.088246   2.151119   2.637663   3.573847   2.863554
     9  H    2.179021   1.111166   2.034830   3.330855   3.620287
    10  H    4.093353   3.457393   2.540162   1.084739   2.137405
    11  H    3.474155   2.703350   2.353880   1.085217   2.135506
    12  H    3.217373   3.551432   3.212794   2.107465   1.088934
    13  H    2.446100   3.463718   3.978126   3.392287   2.176430
    14  H    2.456726   2.786191   3.391693   2.718045   2.163190
                    6          7          8          9         10
     6  C    0.000000
     7  H    2.539776   0.000000
     8  H    2.432449   1.830123   0.000000
     9  H    3.171236   2.460585   3.097090   0.000000
    10  H    3.425121   5.105634   4.210441   4.089200   0.000000
    11  H    2.716637   4.250006   4.054522   2.905625   1.835669
    12  H    2.174496   4.145040   2.965326   4.461392   2.456785
    13  H    1.089648   2.742904   2.629595   4.048422   4.300983
    14  H    1.090438   2.731713   3.222135   2.953612   3.797603
                   11         12         13         14
    11  H    0.000000
    12  H    3.086289   0.000000
    13  H    3.773405   2.488520   0.000000
    14  H    2.561722   3.098308   1.806728   0.000000
 Symmetry turned off by external request.
 Stoichiometry    C5H8O
 Framework group  C1[X(C5H8O)]
 Deg. of freedom    36
 Full point group                 C1      NOp   1
 Rotational constants (GHZ):           4.7799502           3.9065072           2.4447641
 Standard basis: 6-31G(d) (6D, 7F)
   106 basis functions,   200 primitive gaussians,   106 cartesian basis functions
    23 alpha electrons       23 beta electrons
       nuclear repulsion energy       229.4477729908 Hartrees.
 NAtoms=   14 NActive=   14 NUniq=   14 SFac= 1.00D+00 NAtFMM=   60 NAOKFM=F Big=F
 Integral buffers will be    131072 words long.
 Raffenetti 2 integral format.
 Two-electron integral symmetry is turned off.
 One-electron integrals computed using PRISM.
 NBasis=   106 RedAO= T EigKep=  4.28D-03  NBF=   106
 NBsUse=   106 1.00D-06 EigRej= -1.00D+00 NBFU=   106
 Initial guess from the checkpoint file:  "claisen_ts_IRCF.chk"
 B after Tr=     0.000496    0.000194    0.000042
         Rot=    1.000000   -0.000021    0.000078   -0.000053 Ang=  -0.01 deg.
 ExpMin= 1.61D-01 ExpMax= 5.48D+03 ExpMxC= 8.25D+02 IAcc=3 IRadAn=         5 AccDes= 0.00D+00
 Harris functional with IExCor=  402 and IRadAn=       5 diagonalized for initial guess.
 HarFok:  IExCor=  402 AccDes= 0.00D+00 IRadAn=         5 IDoV= 1 UseB2=F ITyADJ=14
 ICtDFT=  3500011 ScaDFX=  1.000000  1.000000  1.000000  1.000000
 FoFCou: FMM=F IPFlag=           0 FMFlag=      100000 FMFlg1=           0
         NFxFlg=           0 DoJE=T BraDBF=F KetDBF=T FulRan=T
         wScrn=  0.000000 ICntrl=       500 IOpCl=  0 I1Cent=   200000004 NGrid=           0
         NMat0=    1 NMatS0=      1 NMatT0=    0 NMatD0=    1 NMtDS0=    0 NMtDT0=    0
 Symmetry not used in FoFCou.
 Requested convergence on RMS density matrix=1.00D-08 within 128 cycles.
 Requested convergence on MAX density matrix=1.00D-06.
 Requested convergence on             energy=1.00D-06.
 No special actions if energy rises.
 Integral accuracy reduced to 1.0D-05 until final iterations.
 Initial convergence to 1.0D-05 achieved.  Increase integral accuracy.
 SCF Done:  E(RB3LYP) =  -270.478637840     A.U. after   13 cycles
            NFock= 13  Conv=0.51D-08     -V/T= 2.0097
 DoSCS=F DFT=T ScalE2(SS,OS)=  1.000000  1.000000
 Range of M.O.s used for correlation:     1   106
 NBasis=   106 NAE=    23 NBE=    23 NFC=     0 NFV=     0
 NROrb=    106 NOA=    23 NOB=    23 NVA=    83 NVB=    83
 Symmetrizing basis deriv contribution to polar:
 IMax=3 JMax=2 DiffMx= 0.00D+00
 Calling FoFJK, ICntrl=      2147 FMM=F ISym2X=0 I1Cent= 0 IOpClX= 0 NMat=1 NMatS=1 NMatT=0.
 -------------------------------------------------------------------
 Center     Atomic                   Forces (Hartrees/Bohr)
 Number     Number              X              Y              Z
 -------------------------------------------------------------------
      1        6           0.027971426    0.011014076    0.006708206
      2        6          -0.000599729   -0.002087385    0.000529305
      3        8          -0.020887572   -0.006634033   -0.003213809
      4        6           0.020153381    0.005300587    0.003324305
      5        6          -0.001286819   -0.002217737   -0.000808640
      6        6          -0.027800851   -0.006184626   -0.006737921
      7        1           0.001732251    0.000597424    0.000303704
      8        1           0.000083972   -0.000008823    0.000552139
      9        1          -0.000845696   -0.000153149   -0.000271371
     10        1           0.002249860    0.000656856    0.000425889
     11        1           0.000048180   -0.000094703   -0.000494307
     12        1           0.000336690    0.000180731    0.000142093
     13        1          -0.000665158   -0.000419014    0.000064118
     14        1          -0.000489934    0.000049795   -0.000523712
 -------------------------------------------------------------------
 Cartesian Forces:  Max     0.027971426 RMS     0.008114093
 IRC-IRC-IRC-IRC-IRC-IRC-IRC-IRC-IRC-IRC-IRC-IRC-IRC-IRC-IRC-IRC-IRC-IRC
 Pt  7 Step number   1 out of a maximum of 200
 Modified Bulirsch-Stoer Extrapolation Cycles:
    EPS =    0.000010000000000
      PEZero:  N= 2 I= 1 D=  1.56D-03 Err=  4.14D-05
      PEZero:  N= 3 I= 2 D=  1.56D-03 Err=  2.76D-05
      PEZero:  N= 3 I= 1 D=  3.12D-03 Err=  6.14D-08
 Maximum DWI energy   std dev =  0.000005420 at pt    71
 Maximum DWI gradient std dev =  0.012824932 at pt    38
 CORRECTOR INTEGRATION CONVERGENCE:
   Recorrection delta-x convergence threshold:    0.010000
   Delta-x Convergence Met
 Point Number:   7          Path Number:   1
   CHANGE IN THE REACTION COORDINATE =    0.29906
   NET REACTION COORDINATE UP TO THIS POINT =    2.09328
  # OF POINTS ALONG THE PATH =   7
  # OF STEPS =   1

 Calculating another point on the path.
[...]
 Raffenetti 2 integral format.
 Two-electron integral symmetry is turned off.
 One-electron integrals computed using PRISM.
 NBasis=   106 RedAO= T EigKep=  3.78D-03  NBF=   106
 NBsUse=   106 1.00D-06 EigRej= -1.00D+00 NBFU=   106
 Initial guess from the checkpoint file:  "claisen_ts_IRCF.chk"
 B after Tr=     0.000252   -0.000008    0.000019
         Rot=    1.000000    0.000071    0.000054   -0.000070 Ang=   0.01 deg.
 ExpMin= 1.61D-01 ExpMax= 5.48D+03 ExpMxC= 8.25D+02 IAcc=3 IRadAn=         5 AccDes= 0.00D+00
 Harris functional with IExCor=  402 and IRadAn=       5 diagonalized for initial guess.
 HarFok:  IExCor=  402 AccDes= 0.00D+00 IRadAn=         5 IDoV= 1 UseB2=F ITyADJ=14
 ICtDFT=  3500011 ScaDFX=  1.000000  1.000000  1.000000  1.000000
 FoFCou: FMM=F IPFlag=           0 FMFlag=      100000 FMFlg1=           0
         NFxFlg=           0 DoJE=T BraDBF=F KetDBF=T FulRan=T
         wScrn=  0.000000 ICntrl=       500 IOpCl=  0 I1Cent=   200000004 NGrid=           0
         NMat0=    1 NMatS0=      1 NMatT0=    0 NMatD0=    1 NMtDS0=    0 NMtDT0=    0
 Symmetry not used in FoFCou.
 Requested convergence on RMS density matrix=1.00D-08 within 128 cycles.
 Requested convergence on MAX density matrix=1.00D-06.
 Requested convergence on             energy=1.00D-06.
 No special actions if energy rises.
 Integral accuracy reduced to 1.0D-05 until final iterations.
 Initial convergence to 1.0D-05 achieved.  Increase integral accuracy.
 SCF Done:  E(RB3LYP) =  -270.533389645     A.U. after    8 cycles
            NFock=  8  Conv=0.64D-08     -V/T= 2.0096
 DoSCS=F DFT=T ScalE2(SS,OS)=  1.000000  1.000000
 Range of M.O.s used for correlation:     1   106
 NBasis=   106 NAE=    23 NBE=    23 NFC=     0 NFV=     0
 NROrb=    106 NOA=    23 NOB=    23 NVA=    83 NVB=    83
 Symmetrizing basis deriv contribution to polar:
 IMax=3 JMax=2 DiffMx= 0.00D+00
 Calling FoFJK, ICntrl=      2147 FMM=F ISym2X=0 I1Cent= 0 IOpClX= 0 NMat=1 NMatS=1 NMatT=0.
 -------------------------------------------------------------------
 Center     Atomic                   Forces (Hartrees/Bohr)
 Number     Number              X              Y              Z
 -------------------------------------------------------------------
      1        6           0.000041353   -0.000060339   -0.000019657
      2        6           0.000088289    0.000041692    0.000014730
      3        8          -0.000387902   -0.000087531   -0.000137295
      4        6           0.000105986    0.000129069    0.000030189
      5        6           0.000076631   -0.000000411    0.000034643
      6        6           0.000015844   -0.000025044    0.000002208
      7        1          -0.000000207   -0.000004360   -0.000000230
      8        1           0.000002201   -0.000002628   -0.000003102
      9        1           0.000039044   -0.000008448    0.000073763
     10        1           0.000007402    0.000011901    0.000003095
     11        1           0.000007401    0.000012759   -0.000007343
     12        1           0.000004412   -0.000003496    0.000008626
     13        1          -0.000000251   -0.000001476    0.000000446
     14        1          -0.000000204   -0.000001686   -0.000000074
 -------------------------------------------------------------------
 Cartesian Forces:  Max     0.000387902 RMS     0.000075102
 IRC-IRC-IRC-IRC-IRC-IRC-IRC-IRC-IRC-IRC-IRC-IRC-IRC-IRC-IRC-IRC-IRC-IRC
 Error in corrector energy =          -0.0000001025
 Magnitude of corrector gradient =     0.0003906440
 Magnitude of analytic gradient =      0.0004867152
 Magnitude of difference =             0.0002461576
 Angle between gradients (degrees)=   30.1257
 Pt 53 Step number  10 out of a maximum of 200
 Modified Bulirsch-Stoer Extrapolation Cycles:
    EPS =    0.000010000000000
      PEZero:  N= 2 I= 1 D=  1.56D-03 Err=  1.58D-02
      PEZero:  N= 3 I= 2 D=  1.56D-03 Err=  2.62D-02
      PEZero:  N= 3 I= 1 D=  3.11D-03 Err=  2.35D-02
      PEZero:  N= 4 I= 3 D=  7.78D-04 Err=  4.30D-02
      PEZero:  N= 4 I= 2 D=  2.34D-03 Err=  3.11D-02
      PEZero:  N= 4 I= 1 D=  3.89D-03 Err=  2.32D-02
      PEZero:  N= 5 I= 4 D=  7.78D-04 Err=  5.82D-02
      PEZero:  N= 5 I= 3 D=  1.56D-03 Err=  4.44D-02
      PEZero:  N= 5 I= 2 D=  3.11D-03 Err=  2.88D-02
      PEZero:  N= 5 I= 1 D=  4.67D-03 Err=  2.11D-02
      PEZero:  N= 6 I= 5 D=  3.89D-04 Err=  8.78D-02
      PEZero:  N= 6 I= 4 D=  1.17D-03 Err=  5.88D-02
      PEZero:  N= 6 I= 3 D=  1.95D-03 Err=  4.39D-02
      PEZero:  N= 6 I= 2 D=  3.50D-03 Err=  2.94D-02
      PEZero:  N= 6 I= 1 D=  5.06D-03 Err=  2.23D-02
      PEZero:  N= 7 I= 6 D=  3.89D-04 Err=  1.17D-01
      PEZero:  N= 7 I= 5 D=  7.78D-04 Err=  8.79D-02
      PEZero:  N= 7 I= 4 D=  1.56D-03 Err=  5.86D-02
      PEZero:  N= 7 I= 3 D=  2.34D-03 Err=  4.39D-02
      PEZero:  N= 7 I= 2 D=  3.89D-03 Err=  2.92D-02
      PEZero:  N= 7 I= 1 D=  5.45D-03 Err=  2.19D-02
      PEZero:  N= 8 I= 7 D=  1.95D-04 Err=  8.19D-02
      PEZero:  N= 8 I= 6 D=  5.84D-04 Err=  7.92D-03
      PEZero:  N= 8 I= 5 D=  9.73D-04 Err=  6.23D-02
      PEZero:  N= 9 I= 8 D=  1.95D-04 Err=  4.81D-06
      PEZero:  N= 9 I= 7 D=  3.89D-04 Err=  8.19D-02
 Maximum DWI energy   std dev =  0.000000443 at pt   326
 Maximum DWI gradient std dev =  1.036304112 at pt   278
 CORRECTOR INTEGRATION CONVERGENCE:
   Recorrection delta-x convergence threshold:    0.010000
   Delta-x Convergence Met
 Point Number:  53          Path Number:   1
   CHANGE IN THE REACTION COORDINATE =    0.29873
   NET REACTION COORDINATE UP TO THIS POINT =   15.84516
  # OF POINTS ALONG THE PATH =  53
  # OF STEPS =  10

 PES minimum detected on this side of the pathway.
    Magnitude of the gradient =      0.0001123
 Calculation of REVERSE path complete.
 Reaction path calculation complete.
 
 Energies reported relative to the TS energy of        -270.461121
 --------------------------------------------------------------------------
    Summary of reaction path following
 --------------------------------------------------------------------------
                        Energy    RxCoord
   1                   -0.07227 -15.84516
   2                   -0.07223 -15.54643
   3                   -0.07218 -15.24741
   4                   -0.07211 -14.94846
   5                   -0.07204 -14.64990
   6                   -0.07195 -14.35103
   7                   -0.07185 -14.05199
   8                   -0.07175 -13.75300
   9                   -0.07163 -13.45393
  10                   -0.07150 -13.15509
  11                   -0.07137 -12.85607
  12                   -0.07123 -12.55700
  13                   -0.07108 -12.25795
  14                   -0.07093 -11.95887
  15                   -0.07076 -11.65999
  16                   -0.07059 -11.36093
  17                   -0.07041 -11.06187
  18                   -0.07021 -10.76282
  19                   -0.07000 -10.46377
  20                   -0.06977 -10.16480
  21                   -0.06952  -9.86575
  22                   -0.06924  -9.56671
  23                   -0.06894  -9.26766
  24                   -0.06860  -8.96859
  25                   -0.06822  -8.66954
  26                   -0.06779  -8.37046
  27                   -0.06732  -8.07137
  28                   -0.06678  -7.77229
  29                   -0.06617  -7.47321
  30                   -0.06548  -7.17414
  31                   -0.06470  -6.87507
  32                   -0.06381  -6.57601
  33                   -0.06280  -6.27694
  34                   -0.06164  -5.97786
  35                   -0.06032  -5.67880
  36                   -0.05881  -5.37976
  37                   -0.05708  -5.08081
  38                   -0.05509  -4.78213
  39                   -0.05275  -4.48402
  40                   -0.04989  -4.18605
  41                   -0.04634  -3.88750
  42                   -0.04211  -3.58860
  43                   -0.03738  -3.28958
  44                   -0.03234  -2.99051
  45                   -0.02723  -2.69143
  46                   -0.02224  -2.39235
  47                   -0.01752  -2.09328
  48                   -0.01319  -1.79423
  49                   -0.00936  -1.49517
  50                   -0.00610  -1.19613
  51                   -0.00348  -0.89710
  52                   -0.00157  -0.59807
  53                   -0.00040  -0.29909
  54                    0.00000   0.00000
 --------------------------------------------------------------------------
 
 Total number of points:                   53
 Total number of gradient calculations:    78
 Total number of Hessian calculations:     11
 IRC-IRC-IRC-IRC-IRC-IRC-IRC-IRC-IRC-IRC-IRC-IRC-IRC-IRC-IRC-IRC-IRC-IRC
                          Input orientation:                          
 ---------------------------------------------------------------------
 Center     Atomic      Atomic             Coordinates (Angstroms)
 Number     Number       Type             X           Y           Z
 ---------------------------------------------------------------------
      1          6           0       -0.986124    0.806379   -0.222312
      2          6           0       -1.339445   -0.584508    0.260279
      3          8           0       -1.729596   -1.485747   -0.446518
      4          6           0        2.384094   -0.292386    0.432878
      5          6           0        1.524279    0.427182   -0.288671
      6          6           0        0.404706    1.260590    0.276783
      7          1           0       -1.748963    1.497063    0.168475
      8          1           0       -1.049026    0.820614   -1.315554
      9          1           0       -1.219919   -0.735598    1.358955
     10          1           0        3.168297   -0.882460   -0.033264
     11          1           0        2.339052   -0.317687    1.520089
     12          1           0        1.604588    0.417794   -1.376927
     13          1           0        0.540833    2.313132   -0.007610
     14          1           0        0.433391    1.226586    1.373993
 ---------------------------------------------------------------------
                    Distance matrix (angstroms):
                    1          2          3          4          5
     1  C    0.000000
     2  C    1.514034   0.000000
     3  O    2.420095   1.209963   0.000000
     4  C    3.604848   3.738966   4.372629   0.000000
     5  C    2.539747   3.086385   3.777818   1.333302   0.000000
     6  C    1.545902   2.539040   3.552573   2.520730   1.505905
     7  H    1.100764   2.123457   3.045611   4.511562   3.473865
     8  H    1.095143   2.131188   2.556892   4.010249   2.798424
     9  H    2.220982   1.115439   2.020452   3.747394   3.405488
    10  H    4.488556   4.527105   4.952180   1.086485   2.117355
    11  H    3.918709   3.897390   4.667526   1.088437   2.119032
    12  H    2.862852   3.514596   3.950432   2.094608   1.091256
    13  H    2.155922   3.464611   4.447355   3.221858   2.145453
    14  H    2.177105   2.768278   3.917846   2.645414   2.143253
                    6          7          8          9         10
     6  C    0.000000
     7  H    2.169318   0.000000
     8  H    2.200558   1.774778   0.000000
     9  H    2.792001   2.584938   3.099032   0.000000
    10  H    3.510873   5.466468   4.725521   4.606114   0.000000
    11  H    2.788989   4.672477   4.562420   3.587045   1.849195
    12  H    2.210154   3.846998   2.684716   4.097952   2.437474
    13  H    1.098752   2.437241   2.542830   3.776573   4.137153
    14  H    1.098111   2.507807   3.097747   2.565896   3.729365
                   11         12         13         14
    11  H    0.000000
    12  H    3.077835   0.000000
    13  H    3.533930   2.568834   0.000000
    14  H    2.457167   3.097323   1.760953   0.000000
 Symmetry turned off by external request.
 Stoichiometry    C5H8O
 Framework group  C1[X(C5H8O)]
 Deg. of freedom    36
 Full point group                 C1      NOp   1
 Rotational constants (GHZ):           6.0387327           2.1457510           1.7623373

 **********************************************************************

            Population analysis using the SCF Density.

 **********************************************************************

 Alpha  occ. eigenvalues --  -19.14792 -10.27644 -10.20535 -10.20158 -10.19641
 Alpha  occ. eigenvalues --  -10.18549  -1.04360  -0.81643  -0.75141  -0.66287
 Alpha  occ. eigenvalues --   -0.57803  -0.56392  -0.48193  -0.46534  -0.44731
 Alpha  occ. eigenvalues --   -0.43900  -0.41446  -0.39031  -0.37145  -0.36018
 Alpha  occ. eigenvalues --   -0.34351  -0.26545  -0.24832
 Alpha virt. eigenvalues --   -0.02087   0.01316   0.10122   0.10713   0.12697
 Alpha virt. eigenvalues --    0.14709   0.15566   0.16670   0.16806   0.18671
 Alpha virt. eigenvalues --    0.21988   0.26764   0.27384   0.31195   0.36786
 Alpha virt. eigenvalues --    0.46895   0.50242   0.52484   0.56157   0.56204
 Alpha virt. eigenvalues --    0.60864   0.62748   0.64267   0.65512   0.67585
 Alpha virt. eigenvalues --    0.68163   0.72685   0.76473   0.78010   0.81651
 Alpha virt. eigenvalues --    0.84155   0.85011   0.86359   0.88186   0.90780
 Alpha virt. eigenvalues --    0.92124   0.93107   0.96098   0.96537   1.01667
 Alpha virt. eigenvalues --    1.08493   1.10434   1.16533   1.26549   1.29433
 Alpha virt. eigenvalues --    1.37417   1.45799   1.49336   1.53419   1.59431
 Alpha virt. eigenvalues --    1.62172   1.65432   1.71744   1.77104   1.79967
 Alpha virt. eigenvalues --    1.86074   1.87472   1.89198   1.94003   1.96806
 Alpha virt. eigenvalues --    2.03712   2.07954   2.15076   2.18215   2.22335
 Alpha virt. eigenvalues --    2.24997   2.33052   2.37824   2.45009   2.51039
 Alpha virt. eigenvalues --    2.57687   2.58301   2.64452   2.77115   2.86049
 Alpha virt. eigenvalues --    2.88219   2.96343   3.85433   4.07235   4.14647
 Alpha virt. eigenvalues --    4.26508   4.38977   4.49055
          Condensed to atoms (all electrons):
               1          2          3          4          5          6
     1  C    5.364653   0.301760  -0.072035  -0.001654  -0.054456   0.315013
     2  C    0.301760   4.596933   0.574861   0.002387   0.004094  -0.031560
     3  O   -0.072035   0.574861   7.930508  -0.000179  -0.000015   0.001160
     4  C   -0.001654   0.002387  -0.000179   4.999609   0.683719  -0.034990
     5  C   -0.054456   0.004094  -0.000015   0.683719   4.773229   0.398908
     6  C    0.315013  -0.031560   0.001160  -0.034990   0.398908   5.054765
     7  H    0.339973  -0.024945   0.001307  -0.000079   0.004778  -0.027336
     8  H    0.344254  -0.026674   0.005644   0.000175  -0.003961  -0.031149
     9  H   -0.124877   0.334462  -0.058960   0.000233   0.000293   0.004334
    10  H   -0.000143  -0.000043   0.000003   0.366316  -0.023917   0.004975
    11  H    0.000223  -0.000007   0.000000   0.369990  -0.036694  -0.012579
    12  H   -0.001273  -0.000368   0.000025  -0.044227   0.369442  -0.057790
    13  H   -0.035018   0.003595  -0.000077   0.000878  -0.035378   0.369201
    14  H   -0.038978  -0.005635   0.000026  -0.005852  -0.039619   0.368160
               7          8          9         10         11         12
     1  C    0.339973   0.344254  -0.124877  -0.000143   0.000223  -0.001273
     2  C   -0.024945  -0.026674   0.334462  -0.000043  -0.000007  -0.000368
     3  O    0.001307   0.005644  -0.058960   0.000003   0.000000   0.000025
     4  C   -0.000079   0.000175   0.000233   0.366316   0.369990  -0.044227
     5  C    0.004778  -0.003961   0.000293  -0.023917  -0.036694   0.369442
     6  C   -0.027336  -0.031149   0.004334   0.004975  -0.012579  -0.057790
     7  H    0.573123  -0.025560   0.003849   0.000003  -0.000009  -0.000072
     8  H   -0.025560   0.558434   0.006739   0.000004   0.000018   0.003468
     9  H    0.003849   0.006739   0.731860   0.000006   0.000102   0.000044
    10  H    0.000003   0.000004   0.000006   0.557099  -0.042437  -0.007979
    11  H   -0.000009   0.000018   0.000102  -0.042437   0.570627   0.005928
    12  H   -0.000072   0.003468   0.000044  -0.007979   0.005928   0.595664
    13  H   -0.004624  -0.002793  -0.000333  -0.000201   0.000143  -0.001672
    14  H   -0.001894   0.004864   0.005706   0.000056   0.006965   0.005186
              13         14
     1  C   -0.035018  -0.038978
     2  C    0.003595  -0.005635
     3  O   -0.000077   0.000026
     4  C    0.000878  -0.005852
     5  C   -0.035378  -0.039619
     6  C    0.369201   0.368160
     7  H   -0.004624  -0.001894
     8  H   -0.002793   0.004864
     9  H   -0.000333   0.005706
    10  H   -0.000201   0.000056
    11  H    0.000143   0.006965
    12  H   -0.001672   0.005186
    13  H    0.581981  -0.033602
    14  H   -0.033602   0.588264
 Mulliken charges:
               1
     1  C   -0.337443
     2  C    0.271141
     3  O   -0.382267
     4  C   -0.336326
     5  C   -0.040423
     6  C   -0.321112
     7  H    0.161485
     8  H    0.166537
     9  H    0.096542
    10  H    0.146256
    11  H    0.137731
    12  H    0.133624
    13  H    0.157900
    14  H    0.146354
 Sum of Mulliken charges =  -0.00000
 Mulliken charges with hydrogens summed into heavy atoms:
               1
     1  C   -0.009420
     2  C    0.367683
     3  O   -0.382267
     4  C   -0.052339
     5  C    0.093201
     6  C   -0.016858
 APT charges:
               1
     1  C   -0.765155
     2  C   -0.452885
     3  O    0.070046
     4  C   -0.602758
     5  C   -0.705764
     6  C   -0.904808
     7  H    0.481806
     8  H    0.364888
     9  H    0.298633
    10  H    0.594918
    11  H    0.380896
    12  H    0.382553
    13  H    0.501294
    14  H    0.356335
 Sum of APT charges =  -0.00000
 APT charges with hydrogens summed into heavy atoms:
               1
     1  C    0.081539
     2  C   -0.154252
     3  O    0.070046
     4  C    0.373057
     5  C   -0.323211
     6  C   -0.047178
 Electronic spatial extent (au):  <R**2>=            705.5860
 Charge=             -0.0000 electrons
 Dipole moment (field-independent basis, Debye):
    X=              0.9043    Y=              2.3606    Z=              1.0223  Tot=              2.7268
 Quadrupole moment (field-independent basis, Debye-Ang):
   XX=            -38.5208   YY=            -39.7451   ZZ=            -35.1504
   XY=             -5.2643   XZ=             -2.1817   YZ=             -1.7533
 Traceless Quadrupole moment (field-independent basis, Debye-Ang):
   XX=             -0.7154   YY=             -1.9397   ZZ=              2.6551
   XY=             -5.2643   XZ=             -2.1817   YZ=             -1.7533
 Octapole moment (field-independent basis, Debye-Ang**2):
  XXX=             -9.0162  YYY=             -2.1689  ZZZ=             -3.3560  XYY=              1.1841
  XXY=             -1.2153  XXZ=              1.5333  XZZ=             -1.9010  YZZ=             -2.7099
  YYZ=              0.2425  XYZ=              2.0972
 Hexadecapole moment (field-independent basis, Debye-Ang**3):
 XXXX=           -576.9489 YYYY=           -249.4145 ZZZZ=            -94.1913 XXXY=            -71.1542
 XXXZ=            -32.8483 YYYX=            -51.2481 YYYZ=             -6.8054 ZZZX=            -23.1871
 ZZZY=             -6.0204 XXYY=           -148.1509 XXZZ=           -109.4206 YYZZ=            -58.4390
 XXYZ=             -5.6502 YYXZ=            -12.6786 ZZXY=            -14.3844
 N-N= 2.172371096496D+02 E-N=-1.063303939904D+03  KE= 2.679524045844D+02
  Exact polarizability:   0.000   0.000   0.000   0.000   0.000   0.000
 Approx polarizability:  71.796 -10.284  76.276  11.737  -0.451  79.564

 This type of calculation cannot be archived.


 JUST WHEN YOU THINK YOU'VE GOT THE WORLD ON A STRING,
 YOU FIND OUT IT'S YOUR LEASH.
 Job cpu time:       0 days  2 hours 54 minutes 36.9 seconds.
 Elapsed time:       0 days  0 hours  7 minutes 49.1 seconds.
 File lengths (MBytes):  RWF=     26 Int=      0 D2E=      0 Chk=      4 Scr=      1
 Normal termination of Gaussian 16 at Thu Jan 13 13:51:12 2022.
