You are running Q-Chem version: 5.4.0

#
# job setting
#
local host:  dynamo.chem.colostate.edu
current dir: /home/rpaton
input file:  acetaldehyde.inp
output file: 
nprocs     : 0
nthreads   : 24
#
# qchem installation setting
#
QC:          /usr/local/qchem
QCAUX:       /usr/local/qchem/qcaux
QCPROG:      /usr/local/qchem/exe/qcprog.exe_s
QCPROG_S:    /usr/local/qchem/exe/qcprog.exe_s
PARALLEL:    -DSERIAL
QCMPI:       seq
#
# qchem directory setting
#
qcrun:       qchem3962149
QCSCRATCH:   /scratch
QCLOCALSCR:  
QCTMPDIR:    /scratch
QCFILEPREF:  /scratch/qchem3962149
QCSAVEDIR:   
workdirs:    /scratch/qchem3962149
workdir0:    /scratch/qchem3962149
partmpdirs =  
#
# parallel setting
#
QCRSH:           ssh
QCMPI:           seq
QCMPIRUN:        
QCMACHINEFILE:   /usr/local/qchem/bin/mpi/machines

#
# env setting
#
exported envs:   QC QCAUX QCSCRATCH QCRUNNAME QCFILEPREF QCPROG QCPROG_S GUIFILE

Running Job 1 of 2 acetaldehyde.inp
qchem acetaldehyde.inp_3962149.0 /scratch/qchem3962149/ 0
/usr/local/qchem/exe/qcprog.exe_s acetaldehyde.inp_3962149.0 /scratch/qchem3962149/
                  Welcome to Q-Chem
     A Quantum Leap Into The Future Of Chemistry


 Q-Chem 5.4, Q-Chem, Inc., Pleasanton, CA (2021)

 E. Epifanovsky,  A. T. B. Gilbert,  Xintian Feng,  Joonho Lee,  Yuezhi Mao,  
 N. Mardirossian,  P. Pokhilko,  A. White,  M. Wormit,  M. P. Coons,  
 A. L. Dempwolff,  Zhengting Gan,  D. Hait,  P. R. Horn,  L. D. Jacobson,  
 I. Kaliman,  J. Kussmann,  A. W. Lange,  Ka Un Lao,  D. S. Levine,  Jie Liu,  
 S. C. McKenzie,  A. F. Morrison,  K. Nanda,  F. Plasser,  D. R. Rehn,  
 M. L. Vidal,  Zhi-Qiang You,  Ying Zhu,  B. Alam,  B. Albrecht,  
 A. Aldossary,  E. Alguire,  J. H. Andersen,  D. Barton,  K. Begam,  A. Behn,  
 Y. A. Bernard,  E. J. Berquist,  H. Burton,  A. Carreras,  K. Carter-Fenk,  
 R. Chakraborty,  A. D. Chien,  K. D. Closser,  V. Cofer-Shabica,  
 S. Dasgupta,  Jia Deng,  M. de Wergifosse,  M. Diedenhofen,  Hainam Do,  
 S. Ehlert,  Po-Tung Fang,  S. Fatehi,  Qingguo Feng,  J. Gayvert,  
 Qinghui Ge,  G. Gidofalvi,  M. Goldey,  J. Gomes,  C. Gonzalez-Espinoza,  
 S. Gulania,  A. Gunina,  M. W. D. Hanson-Heine,  P. H. P. Harbach,  
 A. W. Hauser,  M. F. Herbst,  M. Hernandez Vera,  M. Hodecker,  
 Z. C. Holden,  S. Houck,  Xunkun Huang,  Kerwin Hui,  B. C. Huynh,  
 M. Ivanov,  Hyunjun Ji,  Hanjie Jiang,  B. Kaduk,  S. Kaehler,  
 K. Khistyaev,  Jaehoon Kim,  P. Klunzinger,  Z. Koczor-Benda,  
 Joong Hoon Koh,  D. Kosenkov,  L. Koulias,  T. Kowalczyk,  C. M. Krauter,  
 K. Kue,  A. Kunitsa,  T. Kus,  A. Landau,  K. V. Lawler,  D. Lefrancois,  
 S. Lehtola,  Rain Li,  Yi-Pei Li,  Jiashu Liang,  M. Liebenthal,  
 Hung-Hsuan Lin,  You-Sheng Lin,  Fenglai Liu,  Kuan-Yu Liu,  
 M. Loipersberger,  A. Luenser,  A. Manjanath,  P. Manohar,  E. Mansoor,  
 S. F. Manzer,  Shan-Ping Mao,  A. V. Marenich,  T. Markovich,  S. Mason,  
 S. A. Maurer,  P. F. McLaughlin,  M. F. S. J. Menger,  J.-M. Mewes,  
 S. A. Mewes,  P. Morgante,  J. W. Mullinax,  T. S. Nguyen-Beck,  
 K. J. Oosterbaan,  G. Paran,  Alexander C. Paul,  Suranjan K. Paul,  
 F. Pavosevic,  Zheng Pei,  S. Prager,  E. I. Proynov,  E. Ramos,  B. Rana,  
 A. E. Rask,  A. Rettig,  R. M. Richard,  F. Rob,  E. Rossomme,  T. Scheele,  
 M. Scheurer,  M. Schneider,  N. Sergueev,  S. M. Sharada,  W. Skomorowski,  
 D. W. Small,  C. J. Stein,  Yu-Chuan Su,  E. J. Sundstrom,  Zhen Tao,  
 J. Thirman,  T. Tsuchimochi,  N. M. Tubman,  S. P. Veccham,  O. Vydrov,  
 J. Wenzel,  J. Witte,  A. Yamada,  Kun Yao,  S. Yeganeh,  S. R. Yost,  
 A. Zech,  Igor Ying Zhang,  Xing Zhang,  Yu Zhang,  D. Zuev,  
 A. Aspuru-Guzik,  A. T. Bell,  N. A. Besley,  K. B. Bravaya,  B. R. Brooks,  
 D. Casanova,  Jeng-Da Chai,  S. Coriani,  C. J. Cramer,  
 A. E. DePrince, III,  R. A. DiStasio Jr.,  A. Dreuw,  B. D. Dunietz,  
 T. R. Furlani,  W. A. Goddard III,  S. Grimme,  S. Hammes-Schiffer,  
 T. Head-Gordon,  W. J. Hehre,  Chao-Ping Hsu,  T.-C. Jagau,  Yousung Jung,  
 A. Klamt,  Jing Kong,  D. S. Lambrecht,  WanZhen Liang,  N. J. Mayhall,  
 C. W. McCurdy,  J. B. Neaton,  C. Ochsenfeld,  J. A. Parkhill,  R. Peverati,  
 V. A. Rassolov,  Yihan Shao,  L. V. Slipchenko,  T. Stauch,  R. P. Steele,  
 J. E. Subotnik,  A. J. W. Thom,  A. Tkatchenko,  D. G. Truhlar,  
 T. Van Voorhis,  T. A. Wesolowski,  K. B. Whaley,  H. L. Woodcock III,  
 P. M. Zimmerman,  S. Faraji,  P. M. W. Gill,  M. Head-Gordon,  
 J. M. Herbert,  A. I. Krylov

 Contributors to earlier versions of Q-Chem not listed above: 
 R. D. Adamson,  B. Austin,  R. Baer,  J. Baker,  G. J. O. Beran,  
 K. Brandhorst,  S. T. Brown,  E. F. C. Byrd,  A. K. Chakraborty,  
 G. K. L. Chan,  Chun-Min Chang,  Yunqing Chen,  C.-L. Cheng,  
 Siu Hung Chien,  D. M. Chipman,  D. L. Crittenden,  H. Dachsel,  
 R. J. Doerksen,  A. D. Dutoi,  R. G. Edgar,  J. Fosso-Tande,  
 L. Fusti-Molnar,  D. Ghosh,  A. Ghysels,  A. Golubeva-Zadorozhnaya,  
 J. Gonthier,  M. S. Gordon,  S. R. Gwaltney,  G. Hawkins,  J. E. Herr,  
 A. Heyden,  S. Hirata,  E. G. Hohenstein,  G. Kedziora,  F. J. Keil,  
 C. Kelley,  Jihan Kim,  R. A. King,  R. Z. Khaliullin,  P. P. Korambath,  
 W. Kurlancheek,  A. Laurent,  A. M. Lee,  M. S. Lee,  S. V. Levchenko,  
 Ching Yeh Lin,  D. Liotard,  E. Livshits,  R. C. Lochan,  I. Lotan,  
 L. A. Martinez-Martinez,  P. E. Maslen,  N. Nair,  D. P. O'Neill,  
 D. Neuhauser,  E. Neuscamman,  C. M. Oana,  R. Olivares-Amaya,  R. Olson,  
 T. M. Perrine,  B. Peters,  P. A. Pieniazek,  A. Prociuk,  Y. M. Rhee,  
 J. Ritchie,  M. A. Rohrdanz,  E. Rosta,  N. J. Russ,  H. F. Schaefer III,  
 M. W. Schmidt,  N. E. Schultz,  S. Sharma,  N. Shenvi,  C. D. Sherrill,  
 A. C. Simmonett,  A. Sodt,  T. Stein,  D. Stuck,  K. S. Thanthiriwatte,  
 V. Vanovschi,  L. Vogt,  Tao Wang,  A. Warshel,  M. A. Watson,  
 C. F. Williams,  Q. Wu,  X. Xu,  Jun Yang,  W. Zhang,  Yan Zhao

 Please cite Q-Chem as follows:
 Y. Shao et al., Mol. Phys. 113, 184-215 (2015)
 DOI: 10.1080/00268976.2014.952696

 Q-Chem 5.4.0 for Intel X86 EM64T Linux

 Parts of Q-Chem use Armadillo 9.800.1 (Horizon Scraper).
 http://arma.sourceforge.net/

 Q-Chem begins on Thu Jan 13 13:54:47 2022  

 Host: 
0

     Scratch files written to /scratch/qchem3962149//
 May1621 |scratch|qcdevops|jenkins|workspace|build_RNUM 7542   
 Processing $rem in /usr/local/qchem/config/preferences:
 Processing $rem in /home/rpaton/.qchemrc:

 Checking the input file for inconsistencies... 	...done.

--------------------------------------------------------------
User input:
--------------------------------------------------------------
$molecule
0 1
H           1.02598         0.12223         0.06942
C           2.12749         0.06671         0.05614
C           2.85038         1.34175         0.36112
O           2.70357        -0.98671        -0.19583
H           2.11900         2.13190         0.55012
H           3.46686         1.62591        -0.49461
H           3.46687         1.20794         1.25280
$end

$rem
JOBTYPE       opt
METHOD        b3lyp
BASIS         def2-tzvp
$end

--------------------------------------------------------------
 ----------------------------------------------------------------
             Standard Nuclear Orientation (Angstroms)
    I     Atom           X                Y                Z
 ----------------------------------------------------------------
    1      H      -0.2927524203    -1.5159921714     0.0000001692
    2      C      -0.2225693528    -0.4152390447    -0.0000001342
    3      C       1.1629840074     0.1518161910    -0.0000010891
    4      O      -1.2321323302     0.2817784143     0.0000001099
    5      H       1.8857631883    -0.6682844019    -0.0000032818
    6      H       1.3107811935     0.7552883162     0.8983561420
    7      H       1.3107787528     0.7552980648    -0.8983465682
 ----------------------------------------------------------------
 Molecular Point Group                 C1    NOp =  1
 Largest Abelian Subgroup              C1    NOp =  1
 Nuclear Repulsion Energy =          69.48546556 hartrees
 There are       12 alpha and       12 beta electrons
 Requested basis set is def2-TZVP
 There are 49 shells and 117 basis functions

 Total QAlloc Memory Limit   8000 MB
 Mega-Array Size       188 MB
 MEM_STATIC part       192 MB
 A cutoff of  1.0D-11 yielded   1208 shell pairs
 There are      7034 function pairs (      9009 Cartesian)
 Smallest overlap matrix eigenvalue = 5.26E-04

 Scale SEOQF with 1.000000e-01/1.000000e-01/1.000000e+00

 Standard Electronic Orientation quadrupole field applied
 Nucleus-field energy     =    -0.0000000003 hartrees
 Guess from superposition of atomic densities
 Warning:  Energy on first SCF cycle will be non-variational
 SAD guess density has 24.000000 electrons

 -----------------------------------------------------------------------
  General SCF calculation program by
  Eric Jon Sundstrom, Paul Horn, Yuezhi Mao, Dmitri Zuev, Alec White,
  David Stuck, Shaama M.S., Shane Yost, Joonho Lee, David Small,
  Daniel Levine, Susi Lehtola, Hugh Burton, Evgeny Epifanovsky,
  Bang C. Huynh
 -----------------------------------------------------------------------
 Exchange:     0.2000 Hartree-Fock + 0.0800 Slater + 0.7200 B88
 Correlation:  0.1900 VWN1RPA + 0.8100 LYP
 Using SG-1 standard quadrature grid
 using 24 threads for integral computing
 -------------------------------------------------------
 OpenMP Integral computing Module                
 Release: version 1.0, May 2013, Q-Chem Inc. Pittsburgh 
 -------------------------------------------------------
 A restricted SCF calculation will be
 performed using DIIS
 SCF converges when DIIS error is below 1.0e-08
 ---------------------------------------
  Cycle       Energy         DIIS error
 ---------------------------------------
    1    -154.2039871003      4.83e-02  
    2    -153.7946308445      8.31e-03  
    3    -153.5812457989      1.53e-02  
    4    -153.8812746542      3.04e-03  
    5    -153.8949426998      4.64e-04  
    6    -153.8952394218      9.29e-05  
    7    -153.8952518961      2.60e-05  
    8    -153.8952528721      6.76e-06  
    9    -153.8952529347      1.10e-06  
   10    -153.8952529367      1.47e-07  
   11    -153.8952529369      3.86e-08  
   12    -153.8952529368      5.59e-09  Convergence criterion met
 ---------------------------------------
 SCF time:   CPU 24.80s  wall 2.00s 
 SCF   energy in the final basis set =     -153.8952529368
 Total energy in the final basis set =     -153.8952529368
 
 --------------------------------------------------------------
 
                    Orbital Energies (a.u.)
 --------------------------------------------------------------
 
 Alpha MOs
 -- Occupied --
-19.1319 -10.2716 -10.1872  -1.0457  -0.7632  -0.5913  -0.4847  -0.4576
 -0.4433  -0.4034  -0.3693  -0.2681
 -- Virtual --
 -0.0488   0.0402   0.0633   0.1085   0.1116   0.1402   0.1578   0.2033
  0.2061   0.2438   0.2747   0.3141   0.3785   0.3905   0.3942   0.4243
  0.4329   0.4524   0.5008   0.5239   0.5307   0.5810   0.6274   0.7524
  0.7882   0.8587   0.8724   0.9124   0.9423   1.0368   1.0596   1.1096
  1.1965   1.3670   1.3804   1.4725   1.4896   1.4977   1.5233   1.5295
  1.5431   1.6321   1.6828   1.8112   1.8417   1.8991   1.9093   1.9485
  2.0320   2.1022   2.1441   2.2037   2.2744   2.3147   2.3300   2.3571
  2.4991   2.5122   2.5275   2.6697   2.6726   2.7217   2.8236   2.8518
  2.8837   2.8953   2.9257   2.9899   3.0386   3.0502   3.1120   3.1343
  3.1790   3.2816   3.3043   3.3889   3.4463   3.4980   3.6681   3.7434
  3.8091   3.8435   3.8842   3.9418   4.1271   4.2690   4.2925   4.4392
  4.5563   4.6521   5.1727   5.1763   5.5126   5.6100   6.0193   6.2400
  6.3178   6.3202   6.4069   6.7688   6.8874   7.0041  22.2495  22.6449
 43.6211
 --------------------------------------------------------------
 
          Ground-State Mulliken Net Atomic Charges

     Atom                 Charge (a.u.)
  ----------------------------------------
      1 H                     0.076858
      2 C                     0.120066
      3 C                    -0.264839
      4 O                    -0.292467
      5 H                     0.096631
      6 H                     0.131875
      7 H                     0.131876
  ----------------------------------------
  Sum of atomic charges =     0.000000

 -----------------------------------------------------------------
                    Cartesian Multipole Moments
 -----------------------------------------------------------------
    Charge (ESU x 10^10)
                -0.0000
    Dipole Moment (Debye)
         X       2.6019      Y      -1.1157      Z       0.0000
       Tot       2.8310
    Quadrupole Moments (Debye-Ang)
        XX     -21.4595     XY       1.1501     YY     -18.0806
        XZ       0.0000     YZ      -0.0000     ZZ     -17.8496
    Octopole Moments (Debye-Ang^2)
       XXX       0.9808    XXY      -0.5873    XYY      -0.5858
       YYY      -0.5084    XXZ       0.0000    XYZ      -0.0000
       YYZ      -0.0000    XZZ      -0.7313    YZZ       1.2339
       ZZZ       0.0000
    Hexadecapole Moments (Debye-Ang^3)
      XXXX    -154.0817   XXXY      -1.8727   XXYY     -31.2612
      XYYY      -0.2958   YYYY     -44.7043   XXXZ       0.0000
      XXYZ      -0.0000   XYYZ      -0.0000   YYYZ      -0.0000
      XXZZ     -27.8382   XYZZ       0.8709   YYZZ     -11.0979
      XZZZ       0.0000   YZZZ       0.0000   ZZZZ     -23.9747
 -----------------------------------------------------------------
 Calculating analytic gradient of the SCF energy
 Gradient of SCF Energy
            1           2           3           4           5           6
    1   0.0033563   0.0297664  -0.0046388  -0.0263263  -0.0018028  -0.0001772
    2   0.0024543  -0.0245487   0.0088046   0.0217489  -0.0030560  -0.0027009
    3  -0.0000001   0.0000001  -0.0000026   0.0000000   0.0000003   0.0027883
            7
    1  -0.0001776
    2  -0.0027022
    3  -0.0027860
 Max gradient component =       2.977E-02
 RMS gradient           =       1.158E-02
 Gradient time:  CPU 10.26 s  wall 0.44 s
 Geometry Optimization Parameters
   NAtoms,    NIC,     NZ,  NCons,   NDum,   NFix, NCnnct, MaxDiis
        7      35       0       0       0       0       0       0


** GEOMETRY OPTIMIZATION IN DELOCALIZED INTERNAL COORDINATES **
   Searching for a Minimum

   Optimization Cycle:   1

                       Coordinates (Angstroms)
     ATOM                X               Y               Z
      1  H        -0.2927524203   -1.5159921714    0.0000001692
      2  C        -0.2225693528   -0.4152390447   -0.0000001342
      3  C         1.1629840074    0.1518161910   -0.0000010891
      4  O        -1.2321323302    0.2817784143    0.0000001099
      5  H         1.8857631883   -0.6682844019   -0.0000032818
      6  H         1.3107811935    0.7552883162    0.8983561420
      7  H         1.3107787528    0.7552980648   -0.8983465682
   Point Group: c1    Number of degrees of freedom:    15


   Energy is   -153.895252937


 Attempting to generate delocalized internal coordinates
 Initial Hessian constructed with Jon Baker's OPTIMIZE code

 15 Hessian modes will be used to form the next step
  Hessian Eigenvalues:
     0.009562    0.009562    0.075880    0.077193    0.160000    0.160000
     0.160000    0.160000    0.220000    0.326834    0.333538    0.344513
     0.345509    0.345514    0.924306

 Minimum search - taking simple RFO step
 Searching for Lamda that Minimizes Along All modes
 Value Taken    Lamda =  -0.00225427
 Step Taken.  Stepsize is  0.100344

                             Maximum     Tolerance    Cnvgd?
         Gradient           0.020607      0.000300      NO
         Displacement       0.064954      0.001200      NO
         Energy change     *********      0.000001      NO


 New Cartesian Coordinates Obtained by Inverse Iteration

 Displacement from previous Coordinates is:  0.115969
 ----------------------------------------------------------------
             Standard Nuclear Orientation (Angstroms)
    I     Atom           X                Y                Z
 ----------------------------------------------------------------
    1      H      -0.3313982265    -1.5190928009     0.0000018625
    2      C      -0.2317383743    -0.4164048855    -0.0000003452
    3      C       1.1692566282     0.1388202100    -0.0000000135
    4      O      -1.2248211267     0.2702848522    -0.0000008821
    5      H       1.9180089128    -0.6553330805    -0.0000042381
    6      H       1.3117735512     0.7631893730     0.8833666818
    7      H       1.3117716740     0.7632016999    -0.8833577176
 ----------------------------------------------------------------
 Molecular Point Group                 C1    NOp =  1
 Largest Abelian Subgroup              C1    NOp =  1
 Nuclear Repulsion Energy =          69.71556213 hartrees
 There are       12 alpha and       12 beta electrons
 Applying Cartesian multipole field
    Component          Value
    ---------          -----
     (2,0,0)        1.00000E-11
     (0,2,0)        2.00000E-11
     (0,0,2)       -3.00000E-10
 Nucleus-field energy     =    -0.0000000003 hartrees
 Requested basis set is def2-TZVP
 There are 49 shells and 117 basis functions
 A cutoff of  1.0D-11 yielded   1208 shell pairs
 There are      7034 function pairs (      9009 Cartesian)
 Smallest overlap matrix eigenvalue = 5.58E-04
 Guess MOs from SCF MO coefficient file

 -----------------------------------------------------------------------
  General SCF calculation program by
  Eric Jon Sundstrom, Paul Horn, Yuezhi Mao, Dmitri Zuev, Alec White,
  David Stuck, Shaama M.S., Shane Yost, Joonho Lee, David Small,
  Daniel Levine, Susi Lehtola, Hugh Burton, Evgeny Epifanovsky,
  Bang C. Huynh
 -----------------------------------------------------------------------
 Exchange:     0.2000 Hartree-Fock + 0.0800 Slater + 0.7200 B88
 Correlation:  0.1900 VWN1RPA + 0.8100 LYP
 Using SG-1 standard quadrature grid
 A restricted SCF calculation will be
 performed using DIIS
 SCF converges when DIIS error is below 1.0e-08
 ---------------------------------------
  Cycle       Energy         DIIS error
 ---------------------------------------
    1    -153.8960702016      5.58e-04  
    2    -153.8964717331      2.37e-04  
    3    -153.8964127477      3.15e-04  
    4    -153.8965305397      5.17e-05  
    5    -153.8965340146      9.67e-06  
    6    -153.8965341741      1.20e-06  
    7    -153.8965341764      2.87e-07  
    8    -153.8965341766      1.10e-07  
    9    -153.8965341766      1.53e-08  
   10    -153.8965341765      2.38e-09  Convergence criterion met
 ---------------------------------------
 SCF time:   CPU 18.49s  wall 1.00s 
 SCF   energy in the final basis set =     -153.8965341765
 Total energy in the final basis set =     -153.8965341765
 
 --------------------------------------------------------------
 
                    Orbital Energies (a.u.)
 --------------------------------------------------------------
 
 Alpha MOs
 -- Occupied --
-19.1315 -10.2701 -10.1864  -1.0566  -0.7597  -0.5898  -0.4868  -0.4550
 -0.4459  -0.4062  -0.3734  -0.2674
 -- Virtual --
 -0.0438   0.0414   0.0646   0.1078   0.1127   0.1405   0.1584   0.2048
  0.2057   0.2429   0.2773   0.3144   0.3767   0.3859   0.3946   0.4237
  0.4311   0.4635   0.5101   0.5271   0.5315   0.5808   0.6310   0.7473
  0.7899   0.8570   0.8711   0.9115   0.9432   1.0420   1.0608   1.1188
  1.2082   1.3654   1.3780   1.4737   1.4812   1.5021   1.5176   1.5285
  1.5441   1.6322   1.6815   1.8085   1.8382   1.9073   1.9092   1.9594
  2.0206   2.0942   2.1568   2.2140   2.2786   2.3266   2.3353   2.3595
  2.5095   2.5119   2.5336   2.6731   2.6748   2.7355   2.8207   2.8282
  2.8783   2.8987   2.9258   2.9852   3.0329   3.0595   3.1108   3.1340
  3.1778   3.2876   3.3033   3.3873   3.4472   3.5001   3.6605   3.7569
  3.7977   3.8534   3.8848   3.9543   4.1028   4.2584   4.3087   4.4221
  4.5503   4.6530   5.1742   5.1789   5.5357   5.6379   6.0639   6.2941
  6.3243   6.3544   6.4267   6.7708   6.8901   7.0269  22.2519  22.6649
 43.6370
 --------------------------------------------------------------
 
          Ground-State Mulliken Net Atomic Charges

     Atom                 Charge (a.u.)
  ----------------------------------------
      1 H                     0.070989
      2 C                     0.111915
      3 C                    -0.275471
      4 O                    -0.270919
      5 H                     0.100695
      6 H                     0.131395
      7 H                     0.131395
  ----------------------------------------
  Sum of atomic charges =     0.000000

 -----------------------------------------------------------------
                    Cartesian Multipole Moments
 -----------------------------------------------------------------
    Charge (ESU x 10^10)
                -0.0000
    Dipole Moment (Debye)
         X       2.5232      Y      -1.0527      Z       0.0000
       Tot       2.7340
    Quadrupole Moments (Debye-Ang)
        XX     -21.2599     XY       1.1642     YY     -18.1160
        XZ       0.0000     YZ      -0.0000     ZZ     -17.9079
    Octopole Moments (Debye-Ang^2)
       XXX       0.9500    XXY      -0.5433    XYY      -0.6817
       YYY       0.1197    XXZ       0.0000    XYZ      -0.0000
       YYZ      -0.0000    XZZ      -0.9518    YZZ       1.3181
       ZZZ       0.0000
    Hexadecapole Moments (Debye-Ang^3)
      XXXX    -153.4436   XXXY      -2.3613   XXYY     -31.2007
      XYYY      -0.5003   YYYY     -44.8697   XXXZ      -0.0000
      XXYZ       0.0000   XYYZ      -0.0000   YYYZ      -0.0000
      XXZZ     -28.0284   XYZZ       0.7007   YYZZ     -11.0749
      XZZZ      -0.0000   YZZZ       0.0000   ZZZZ     -23.9341
 -----------------------------------------------------------------
 Calculating analytic gradient of the SCF energy
 Gradient of SCF Energy
            1           2           3           4           5           6
    1  -0.0010273   0.0067685  -0.0014405  -0.0053754   0.0006649   0.0002050
    2   0.0016611  -0.0043964   0.0033852   0.0024856  -0.0005921  -0.0012717
    3   0.0000000  -0.0000001  -0.0000003   0.0000001   0.0000001   0.0001546
            7
    1   0.0002049
    2  -0.0012717
    3  -0.0001544
 Max gradient component =       6.769E-03
 RMS gradient           =       2.408E-03
 Gradient time:  CPU 8.21 s  wall 0.35 s
 Geometry Optimization Parameters
   NAtoms,    NIC,     NZ,  NCons,   NDum,   NFix, NCnnct, MaxDiis
        7      35       0       0       0       0       0       0

 Cartesian Hessian Update
 Hessian updated using BFGS update


** GEOMETRY OPTIMIZATION IN DELOCALIZED INTERNAL COORDINATES **
   Searching for a Minimum

   Optimization Cycle:   2

                       Coordinates (Angstroms)
     ATOM                X               Y               Z
      1  H        -0.3313982265   -1.5190928009    0.0000018625
      2  C        -0.2317383743   -0.4164048855   -0.0000003452
      3  C         1.1692566282    0.1388202100   -0.0000000135
      4  O        -1.2248211267    0.2702848522   -0.0000008821
      5  H         1.9180089128   -0.6553330805   -0.0000042381
      6  H         1.3117735512    0.7631893730    0.8833666818
      7  H         1.3117716740    0.7632016999   -0.8833577176
   Point Group: c1    Number of degrees of freedom:    15


   Energy is   -153.896534176

 Hessian updated using BFGS update

 13 Hessian modes will be used to form the next step
  Hessian Eigenvalues:
     0.009562    0.009562    0.069415    0.077193    0.158117    0.173961
     0.224229    0.323889    0.333350    0.344105    0.345511    0.347387
     0.816516

 Minimum search - taking simple RFO step
 Searching for Lamda that Minimizes Along All modes
 Value Taken    Lamda =  -0.00013019
 Step Taken.  Stepsize is  0.031259

                             Maximum     Tolerance    Cnvgd?
         Gradient           0.003588      0.000300      NO
         Displacement       0.024682      0.001200      NO
         Energy change     -0.001281      0.000001      NO


 New Cartesian Coordinates Obtained by Inverse Iteration

 Displacement from previous Coordinates is:  0.023932
 ----------------------------------------------------------------
             Standard Nuclear Orientation (Angstroms)
    I     Atom           X                Y                Z
 ----------------------------------------------------------------
    1      H      -0.3308303470    -1.5226667376     0.0000018342
    2      C      -0.2341324525    -0.4167102453     0.0000019434
    3      C       1.1694807203     0.1341452729     0.0000008908
    4      O      -1.2187777588     0.2740924624    -0.0000035681
    5      H       1.9193484264    -0.6567228189    -0.0000056256
    6      H       1.3088845135     0.7662576195     0.8795410179
    7      H       1.3088799367     0.7662698153    -0.8795311450
 ----------------------------------------------------------------
 Molecular Point Group                 C1    NOp =  1
 Largest Abelian Subgroup              C1    NOp =  1
 Nuclear Repulsion Energy =          69.80946597 hartrees
 There are       12 alpha and       12 beta electrons
 Applying Cartesian multipole field
    Component          Value
    ---------          -----
     (2,0,0)        1.00000E-11
     (0,2,0)        2.00000E-11
     (0,0,2)       -3.00000E-10
 Nucleus-field energy     =    -0.0000000003 hartrees
 Requested basis set is def2-TZVP
 There are 49 shells and 117 basis functions
 A cutoff of  1.0D-11 yielded   1208 shell pairs
 There are      7034 function pairs (      9009 Cartesian)
 Smallest overlap matrix eigenvalue = 5.61E-04
 Guess MOs from SCF MO coefficient file

 -----------------------------------------------------------------------
  General SCF calculation program by
  Eric Jon Sundstrom, Paul Horn, Yuezhi Mao, Dmitri Zuev, Alec White,
  David Stuck, Shaama M.S., Shane Yost, Joonho Lee, David Small,
  Daniel Levine, Susi Lehtola, Hugh Burton, Evgeny Epifanovsky,
  Bang C. Huynh
 -----------------------------------------------------------------------
 Exchange:     0.2000 Hartree-Fock + 0.0800 Slater + 0.7200 B88
 Correlation:  0.1900 VWN1RPA + 0.8100 LYP
 Using SG-1 standard quadrature grid
 A restricted SCF calculation will be
 performed using DIIS
 SCF converges when DIIS error is below 1.0e-08
 ---------------------------------------
  Cycle       Energy         DIIS error
 ---------------------------------------
    1    -153.8965464552      1.84e-04  
    2    -153.8965927303      8.54e-05  
    3    -153.8965837307      1.19e-04  
    4    -153.8966008771      1.39e-05  
    5    -153.8966011316      2.87e-06  
    6    -153.8966011458      3.05e-07  
    7    -153.8966011459      9.08e-08  
    8    -153.8966011459      2.36e-08  
    9    -153.8966011460      3.30e-09  Convergence criterion met
 ---------------------------------------
 SCF time:   CPU 15.68s  wall 1.00s 
 SCF   energy in the final basis set =     -153.8966011460
 Total energy in the final basis set =     -153.8966011460
 
 --------------------------------------------------------------
 
                    Orbital Energies (a.u.)
 --------------------------------------------------------------
 
 Alpha MOs
 -- Occupied --
-19.1316 -10.2699 -10.1859  -1.0593  -0.7591  -0.5893  -0.4873  -0.4542
 -0.4465  -0.4072  -0.3739  -0.2675
 -- Virtual --
 -0.0428   0.0418   0.0645   0.1079   0.1129   0.1403   0.1588   0.2041
  0.2061   0.2427   0.2786   0.3140   0.3768   0.3865   0.3950   0.4225
  0.4300   0.4638   0.5132   0.5271   0.5315   0.5816   0.6310   0.7473
  0.7901   0.8574   0.8716   0.9119   0.9442   1.0423   1.0613   1.1215
  1.2087   1.3650   1.3774   1.4729   1.4811   1.5009   1.5183   1.5288
  1.5460   1.6325   1.6811   1.8101   1.8387   1.9057   1.9079   1.9654
  2.0189   2.0935   2.1552   2.2167   2.2771   2.3228   2.3416   2.3617
  2.5086   2.5126   2.5362   2.6737   2.6768   2.7354   2.8204   2.8243
  2.8783   2.8994   2.9255   2.9875   3.0325   3.0637   3.1118   3.1374
  3.1777   3.2845   3.3009   3.3896   3.4505   3.5042   3.6607   3.7584
  3.7952   3.8534   3.8843   3.9554   4.0952   4.2565   4.3141   4.4246
  4.5487   4.6523   5.1745   5.1792   5.5422   5.6472   6.0737   6.3079
  6.3249   6.3616   6.4286   6.7710   6.8918   7.0323  22.2523  22.6641
 43.6424
 --------------------------------------------------------------
 
          Ground-State Mulliken Net Atomic Charges

     Atom                 Charge (a.u.)
  ----------------------------------------
      1 H                     0.069217
      2 C                     0.111079
      3 C                    -0.277567
      4 O                    -0.265713
      5 H                     0.100771
      6 H                     0.131106
      7 H                     0.131106
  ----------------------------------------
  Sum of atomic charges =     0.000000

 -----------------------------------------------------------------
                    Cartesian Multipole Moments
 -----------------------------------------------------------------
    Charge (ESU x 10^10)
                -0.0000
    Dipole Moment (Debye)
         X       2.4919      Y      -1.0481      Z       0.0000
       Tot       2.7033
    Quadrupole Moments (Debye-Ang)
        XX     -21.2365     XY       1.1605     YY     -18.1118
        XZ      -0.0000     YZ       0.0000     ZZ     -17.9276
    Octopole Moments (Debye-Ang^2)
       XXX       0.7852    XXY      -0.5560    XYY      -0.6800
       YYY       0.1964    XXZ       0.0000    XYZ       0.0000
       YYZ      -0.0000    XZZ      -1.0316    YZZ       1.3176
       ZZZ       0.0000
    Hexadecapole Moments (Debye-Ang^3)
      XXXX    -152.8508   XXXY      -2.2901   XXYY     -31.1226
      XYYY      -0.4212   YYYY     -45.0862   XXXZ      -0.0001
      XXYZ       0.0000   XYYZ      -0.0000   YYYZ       0.0000
      XXZZ     -28.0020   XYZZ       0.7142   YYZZ     -11.1004
      XZZZ      -0.0001   YZZZ       0.0000   ZZZZ     -23.9442
 -----------------------------------------------------------------
 Calculating analytic gradient of the SCF energy
 Gradient of SCF Energy
            1           2           3           4           5           6
    1  -0.0002386  -0.0000450  -0.0006445   0.0006853   0.0001216   0.0000606
    2   0.0002248   0.0000286   0.0005309  -0.0003760  -0.0000337  -0.0001873
    3  -0.0000003   0.0000008  -0.0000002  -0.0000003   0.0000000  -0.0000300
            7
    1   0.0000607
    2  -0.0001873
    3   0.0000300
 Max gradient component =       6.853E-04
 RMS gradient           =       2.685E-04
 Gradient time:  CPU 7.60 s  wall 0.32 s
 Geometry Optimization Parameters
   NAtoms,    NIC,     NZ,  NCons,   NDum,   NFix, NCnnct, MaxDiis
        7      35       0       0       0       0       0       0

 Cartesian Hessian Update
 Hessian updated using BFGS update


** GEOMETRY OPTIMIZATION IN DELOCALIZED INTERNAL COORDINATES **
   Searching for a Minimum

   Optimization Cycle:   3

                       Coordinates (Angstroms)
     ATOM                X               Y               Z
      1  H        -0.3308303470   -1.5226667376    0.0000018342
      2  C        -0.2341324525   -0.4167102453    0.0000019434
      3  C         1.1694807203    0.1341452729    0.0000008908
      4  O        -1.2187777588    0.2740924624   -0.0000035681
      5  H         1.9193484264   -0.6567228189   -0.0000056256
      6  H         1.3088845135    0.7662576195    0.8795410179
      7  H         1.3088799367    0.7662698153   -0.8795311450
   Point Group: c1    Number of degrees of freedom:    15


   Energy is   -153.896601146

 Hessian updated using BFGS update

 14 Hessian modes will be used to form the next step
  Hessian Eigenvalues:
     0.009562    0.009562    0.064176    0.077193    0.156069    0.160025
     0.167514    0.230160    0.316376    0.335238    0.344241    0.345511
     0.346386    0.900549

 Minimum search - taking simple RFO step
 Searching for Lamda that Minimizes Along All modes
 Value Taken    Lamda =  -0.00000337
 Step Taken.  Stepsize is  0.004798

                             Maximum     Tolerance    Cnvgd?
         Gradient           0.000577      0.000300      NO
         Displacement       0.003665      0.001200      NO
         Energy change     -0.000067      0.000001      NO


 New Cartesian Coordinates Obtained by Inverse Iteration

 Displacement from previous Coordinates is:  0.004201
 ----------------------------------------------------------------
             Standard Nuclear Orientation (Angstroms)
    I     Atom           X                Y                Z
 ----------------------------------------------------------------
    1      H      -0.3296886168    -1.5227382927     0.0000083676
    2      C      -0.2346989861    -0.4162428165    -0.0000081073
    3      C       1.1699384130     0.1336160593    -0.0000007420
    4      O      -1.2199402533     0.2742748432     0.0000008445
    5      H       1.9192240282    -0.6575290181    -0.0000059858
    6      H       1.3090079001     0.7666340978     0.8791986702
    7      H       1.3090105534     0.7666504952    -0.8791876995
 ----------------------------------------------------------------
 Molecular Point Group                 C1    NOp =  1
 Largest Abelian Subgroup              C1    NOp =  1
 Nuclear Repulsion Energy =          69.78653475 hartrees
 There are       12 alpha and       12 beta electrons
 Applying Cartesian multipole field
    Component          Value
    ---------          -----
     (2,0,0)        1.00000E-11
     (0,2,0)        2.00000E-11
     (0,0,2)       -3.00000E-10
 Nucleus-field energy     =    -0.0000000003 hartrees
 Requested basis set is def2-TZVP
 There are 49 shells and 117 basis functions
 A cutoff of  1.0D-11 yielded   1208 shell pairs
 There are      7034 function pairs (      9009 Cartesian)
 Smallest overlap matrix eigenvalue = 5.63E-04
 Guess MOs from SCF MO coefficient file

 -----------------------------------------------------------------------
  General SCF calculation program by
  Eric Jon Sundstrom, Paul Horn, Yuezhi Mao, Dmitri Zuev, Alec White,
  David Stuck, Shaama M.S., Shane Yost, Joonho Lee, David Small,
  Daniel Levine, Susi Lehtola, Hugh Burton, Evgeny Epifanovsky,
  Bang C. Huynh
 -----------------------------------------------------------------------
 Exchange:     0.2000 Hartree-Fock + 0.0800 Slater + 0.7200 B88
 Correlation:  0.1900 VWN1RPA + 0.8100 LYP
 Using SG-1 standard quadrature grid
 A restricted SCF calculation will be
 performed using DIIS
 SCF converges when DIIS error is below 1.0e-08
 ---------------------------------------
  Cycle       Energy         DIIS error
 ---------------------------------------
    1    -153.8966022834      1.93e-05  
    2    -153.8966028129      9.83e-06  
    3    -153.8966026975      1.39e-05  
    4    -153.8966029386      1.53e-06  
    5    -153.8966029420      1.56e-07  
    6    -153.8966029420      3.53e-08  
    7    -153.8966029420      9.97e-09  Convergence criterion met
 ---------------------------------------
 SCF time:   CPU 12.17s  wall 1.00s 
 SCF   energy in the final basis set =     -153.8966029420
 Total energy in the final basis set =     -153.8966029420
 
 --------------------------------------------------------------
 
                    Orbital Energies (a.u.)
 --------------------------------------------------------------
 
 Alpha MOs
 -- Occupied --
-19.1317 -10.2701 -10.1859  -1.0591  -0.7590  -0.5893  -0.4872  -0.4540
 -0.4465  -0.4074  -0.3739  -0.2675
 -- Virtual --
 -0.0429   0.0417   0.0645   0.1079   0.1129   0.1402   0.1588   0.2040
  0.2061   0.2427   0.2787   0.3140   0.3766   0.3863   0.3949   0.4225
  0.4299   0.4635   0.5131   0.5270   0.5315   0.5816   0.6308   0.7471
  0.7898   0.8574   0.8715   0.9120   0.9442   1.0423   1.0610   1.1212
  1.2085   1.3652   1.3774   1.4730   1.4813   1.5004   1.5183   1.5288
  1.5459   1.6324   1.6810   1.8098   1.8384   1.9052   1.9076   1.9655
  2.0189   2.0931   2.1549   2.2163   2.2763   2.3220   2.3421   2.3620
  2.5080   2.5127   2.5363   2.6736   2.6766   2.7353   2.8206   2.8238
  2.8780   2.8995   2.9252   2.9874   3.0324   3.0634   3.1120   3.1372
  3.1781   3.2840   3.3003   3.3894   3.4491   3.5035   3.6606   3.7583
  3.7941   3.8529   3.8838   3.9552   4.0947   4.2551   4.3141   4.4244
  4.5478   4.6522   5.1743   5.1790   5.5418   5.6465   6.0730   6.3068
  6.3247   6.3610   6.4280   6.7709   6.8912   7.0318  22.2513  22.6625
 43.6424
 --------------------------------------------------------------
 
          Ground-State Mulliken Net Atomic Charges

     Atom                 Charge (a.u.)
  ----------------------------------------
      1 H                     0.069103
      2 C                     0.111509
      3 C                    -0.277723
      4 O                    -0.266026
      5 H                     0.100933
      6 H                     0.131103
      7 H                     0.131102
  ----------------------------------------
  Sum of atomic charges =     0.000000

 -----------------------------------------------------------------
                    Cartesian Multipole Moments
 -----------------------------------------------------------------
    Charge (ESU x 10^10)
                -0.0000
    Dipole Moment (Debye)
         X       2.4941      Y      -1.0472      Z      -0.0000
       Tot       2.7050
    Quadrupole Moments (Debye-Ang)
        XX     -21.2406     XY       1.1569     YY     -18.1118
        XZ       0.0000     YZ      -0.0000     ZZ     -17.9324
    Octopole Moments (Debye-Ang^2)
       XXX       0.8137    XXY      -0.5606    XYY      -0.6647
       YYY       0.1987    XXZ       0.0000    XYZ       0.0000
       YYZ       0.0000    XZZ      -1.0297    YZZ       1.3170
       ZZZ       0.0001
    Hexadecapole Moments (Debye-Ang^3)
      XXXX    -152.9906   XXXY      -2.2861   XXYY     -31.1434
      XYYY      -0.4115   YYYY     -45.0877   XXXZ       0.0000
      XXYZ       0.0000   XYYZ      -0.0000   YYYZ      -0.0001
      XXZZ     -28.0310   XYZZ       0.7185   YYZZ     -11.1015
      XZZZ       0.0000   YZZZ       0.0000   ZZZZ     -23.9520
 -----------------------------------------------------------------
 Calculating analytic gradient of the SCF energy
 Gradient of SCF Energy
            1           2           3           4           5           6
    1  -0.0000216  -0.0000064  -0.0000996   0.0000280   0.0000790   0.0000105
    2  -0.0000077   0.0000564   0.0000047  -0.0000027   0.0000125  -0.0000315
    3   0.0000012  -0.0000037   0.0000011   0.0000013   0.0000001  -0.0000004
            7
    1   0.0000100
    2  -0.0000317
    3   0.0000004
 Max gradient component =       9.956E-05
 RMS gradient           =       3.317E-05
 Gradient time:  CPU 7.64 s  wall 0.32 s
 Geometry Optimization Parameters
   NAtoms,    NIC,     NZ,  NCons,   NDum,   NFix, NCnnct, MaxDiis
        7      35       0       0       0       0       0       0

 Cartesian Hessian Update
 Hessian updated using BFGS update


** GEOMETRY OPTIMIZATION IN DELOCALIZED INTERNAL COORDINATES **
   Searching for a Minimum

   Optimization Cycle:   4

                       Coordinates (Angstroms)
     ATOM                X               Y               Z
      1  H        -0.3296886168   -1.5227382927    0.0000083676
      2  C        -0.2346989861   -0.4162428165   -0.0000081073
      3  C         1.1699384130    0.1336160593   -0.0000007420
      4  O        -1.2199402533    0.2742748432    0.0000008445
      5  H         1.9192240282   -0.6575290181   -0.0000059858
      6  H         1.3090079001    0.7666340978    0.8791986702
      7  H         1.3090105534    0.7666504952   -0.8791876995
   Point Group: c1    Number of degrees of freedom:    15


   Energy is   -153.896602942

 Hessian updated using BFGS update

 15 Hessian modes will be used to form the next step
  Hessian Eigenvalues:
     0.009562    0.009563    0.064042    0.077193    0.146505    0.159072
     0.160000    0.168102    0.230689    0.316025    0.334125    0.345511
     0.345583    0.346055    0.900219

 Minimum search - taking simple RFO step
 Searching for Lamda that Minimizes Along All modes
 Value Taken    Lamda =  -0.00000012
 Step Taken.  Stepsize is  0.000923

                             Maximum     Tolerance    Cnvgd?
         Gradient           0.000098      0.000300     YES
         Displacement       0.000623      0.001200     YES
         Energy change     -0.000002      0.000001      NO


                       Distance Matrix (Angstroms)
             H (  1)   C (  2)   C (  3)   O (  4)   H (  5)   H (  6)
   C (  2)  1.110565
   C (  3)  2.234366  1.508427
   O (  4)  2.005444  1.203127  2.394014
   H (  5)  2.409605  2.167396  1.089651  3.274540
   H (  6)  2.949496  2.134299  1.092265  2.722312  1.781462
   H (  7)  2.949512  2.134299  1.092265  2.722315  1.781462  1.758386

 
 Final energy is   -153.896602942043     


 ******************************
 **  OPTIMIZATION CONVERGED  **
 ******************************

                       Coordinates (Angstroms)
     ATOM                X               Y               Z
      1  H        -0.3296886168   -1.5227382927    0.0000083676
      2  C        -0.2346989861   -0.4162428165   -0.0000081073
      3  C         1.1699384130    0.1336160593   -0.0000007420
      4  O        -1.2199402533    0.2742748432    0.0000008445
      5  H         1.9192240282   -0.6575290181   -0.0000059858
      6  H         1.3090079001    0.7666340978    0.8791986702
      7  H         1.3090105534    0.7666504952   -0.8791876995

Z-matrix Print:
$molecule
0 1
C 
H  1 1.110565
O  1 1.203127 2 120.118477
C  1 1.508427 2 116.284996 3 179.998282 0
H  4 1.089651 1 112.065096 2 0.001497 0
H  4 1.092265 1 109.258107 2 121.501792 0
H  4 1.092265 1 109.258111 2 -121.498683 0
$end

 
 --------------------------------------------------------------
 
                    Orbital Energies (a.u.)
 --------------------------------------------------------------
 
 Alpha MOs
 -- Occupied --
-19.1317 -10.2701 -10.1859  -1.0591  -0.7590  -0.5893  -0.4872  -0.4540
 -0.4465  -0.4074  -0.3739  -0.2675
 -- Virtual --
 -0.0429   0.0417   0.0645   0.1079   0.1129   0.1402   0.1588   0.2040
  0.2061   0.2427   0.2787   0.3140   0.3766   0.3863   0.3949   0.4225
  0.4299   0.4635   0.5131   0.5270   0.5315   0.5816   0.6308   0.7471
  0.7898   0.8574   0.8715   0.9120   0.9442   1.0423   1.0610   1.1212
  1.2085   1.3652   1.3774   1.4730   1.4813   1.5004   1.5183   1.5288
  1.5459   1.6324   1.6810   1.8098   1.8384   1.9052   1.9076   1.9655
  2.0189   2.0931   2.1549   2.2163   2.2763   2.3220   2.3421   2.3620
  2.5080   2.5127   2.5363   2.6736   2.6766   2.7353   2.8206   2.8238
  2.8780   2.8995   2.9252   2.9874   3.0324   3.0634   3.1120   3.1372
  3.1781   3.2840   3.3003   3.3894   3.4491   3.5035   3.6606   3.7583
  3.7941   3.8529   3.8838   3.9552   4.0947   4.2551   4.3141   4.4244
  4.5478   4.6522   5.1743   5.1790   5.5418   5.6465   6.0730   6.3068
  6.3247   6.3610   6.4280   6.7709   6.8912   7.0318  22.2513  22.6625
 43.6424
 --------------------------------------------------------------
 
          Ground-State Mulliken Net Atomic Charges

     Atom                 Charge (a.u.)
  ----------------------------------------
      1 H                     0.069103
      2 C                     0.111509
      3 C                    -0.277723
      4 O                    -0.266026
      5 H                     0.100933
      6 H                     0.131103
      7 H                     0.131102
  ----------------------------------------
  Sum of atomic charges =     0.000000

 -----------------------------------------------------------------
                    Cartesian Multipole Moments
 -----------------------------------------------------------------
    Charge (ESU x 10^10)
                -0.0000
    Dipole Moment (Debye)
         X       2.4941      Y      -1.0472      Z      -0.0000
       Tot       2.7050
    Quadrupole Moments (Debye-Ang)
        XX     -21.2406     XY       1.1569     YY     -18.1118
        XZ       0.0000     YZ      -0.0000     ZZ     -17.9324
    Octopole Moments (Debye-Ang^2)
       XXX       0.8137    XXY      -0.5606    XYY      -0.6647
       YYY       0.1987    XXZ       0.0000    XYZ       0.0000
       YYZ       0.0000    XZZ      -1.0297    YZZ       1.3170
       ZZZ       0.0001
    Hexadecapole Moments (Debye-Ang^3)
      XXXX    -152.9906   XXXY      -2.2861   XXYY     -31.1434
      XYYY      -0.4115   YYYY     -45.0877   XXXZ       0.0000
      XXYZ       0.0000   XYYZ      -0.0000   YYYZ      -0.0001
      XXZZ     -28.0310   XYZZ       0.7185   YYZZ     -11.1015
      XZZZ       0.0000   YZZZ       0.0000   ZZZZ     -23.9520
 -----------------------------------------------------------------
 Total job time:  5.05s(wall), 112.84s(cpu) 
 Thu Jan 13 13:54:52 2022

        *************************************************************
        *                                                           *
        *  Thank you very much for using Q-Chem.  Have a nice day.  *
        *                                                           *
        *************************************************************



Running Job 2 of 2 acetaldehyde.inp
qchem acetaldehyde.inp_3962149.1 /scratch/qchem3962149/ 0
/usr/local/qchem/exe/qcprog.exe_s acetaldehyde.inp_3962149.1 /scratch/qchem3962149/
                  Welcome to Q-Chem
     A Quantum Leap Into The Future Of Chemistry


 Q-Chem 5.4, Q-Chem, Inc., Pleasanton, CA (2021)

 E. Epifanovsky,  A. T. B. Gilbert,  Xintian Feng,  Joonho Lee,  Yuezhi Mao,  
 N. Mardirossian,  P. Pokhilko,  A. White,  M. Wormit,  M. P. Coons,  
 A. L. Dempwolff,  Zhengting Gan,  D. Hait,  P. R. Horn,  L. D. Jacobson,  
 I. Kaliman,  J. Kussmann,  A. W. Lange,  Ka Un Lao,  D. S. Levine,  Jie Liu,  
 S. C. McKenzie,  A. F. Morrison,  K. Nanda,  F. Plasser,  D. R. Rehn,  
 M. L. Vidal,  Zhi-Qiang You,  Ying Zhu,  B. Alam,  B. Albrecht,  
 A. Aldossary,  E. Alguire,  J. H. Andersen,  D. Barton,  K. Begam,  A. Behn,  
 Y. A. Bernard,  E. J. Berquist,  H. Burton,  A. Carreras,  K. Carter-Fenk,  
 R. Chakraborty,  A. D. Chien,  K. D. Closser,  V. Cofer-Shabica,  
 S. Dasgupta,  Jia Deng,  M. de Wergifosse,  M. Diedenhofen,  Hainam Do,  
 S. Ehlert,  Po-Tung Fang,  S. Fatehi,  Qingguo Feng,  J. Gayvert,  
 Qinghui Ge,  G. Gidofalvi,  M. Goldey,  J. Gomes,  C. Gonzalez-Espinoza,  
 S. Gulania,  A. Gunina,  M. W. D. Hanson-Heine,  P. H. P. Harbach,  
 A. W. Hauser,  M. F. Herbst,  M. Hernandez Vera,  M. Hodecker,  
 Z. C. Holden,  S. Houck,  Xunkun Huang,  Kerwin Hui,  B. C. Huynh,  
 M. Ivanov,  Hyunjun Ji,  Hanjie Jiang,  B. Kaduk,  S. Kaehler,  
 K. Khistyaev,  Jaehoon Kim,  P. Klunzinger,  Z. Koczor-Benda,  
 Joong Hoon Koh,  D. Kosenkov,  L. Koulias,  T. Kowalczyk,  C. M. Krauter,  
 K. Kue,  A. Kunitsa,  T. Kus,  A. Landau,  K. V. Lawler,  D. Lefrancois,  
 S. Lehtola,  Rain Li,  Yi-Pei Li,  Jiashu Liang,  M. Liebenthal,  
 Hung-Hsuan Lin,  You-Sheng Lin,  Fenglai Liu,  Kuan-Yu Liu,  
 M. Loipersberger,  A. Luenser,  A. Manjanath,  P. Manohar,  E. Mansoor,  
 S. F. Manzer,  Shan-Ping Mao,  A. V. Marenich,  T. Markovich,  S. Mason,  
 S. A. Maurer,  P. F. McLaughlin,  M. F. S. J. Menger,  J.-M. Mewes,  
 S. A. Mewes,  P. Morgante,  J. W. Mullinax,  T. S. Nguyen-Beck,  
 K. J. Oosterbaan,  G. Paran,  Alexander C. Paul,  Suranjan K. Paul,  
 F. Pavosevic,  Zheng Pei,  S. Prager,  E. I. Proynov,  E. Ramos,  B. Rana,  
 A. E. Rask,  A. Rettig,  R. M. Richard,  F. Rob,  E. Rossomme,  T. Scheele,  
 M. Scheurer,  M. Schneider,  N. Sergueev,  S. M. Sharada,  W. Skomorowski,  
 D. W. Small,  C. J. Stein,  Yu-Chuan Su,  E. J. Sundstrom,  Zhen Tao,  
 J. Thirman,  T. Tsuchimochi,  N. M. Tubman,  S. P. Veccham,  O. Vydrov,  
 J. Wenzel,  J. Witte,  A. Yamada,  Kun Yao,  S. Yeganeh,  S. R. Yost,  
 A. Zech,  Igor Ying Zhang,  Xing Zhang,  Yu Zhang,  D. Zuev,  
 A. Aspuru-Guzik,  A. T. Bell,  N. A. Besley,  K. B. Bravaya,  B. R. Brooks,  
 D. Casanova,  Jeng-Da Chai,  S. Coriani,  C. J. Cramer,  
 A. E. DePrince, III,  R. A. DiStasio Jr.,  A. Dreuw,  B. D. Dunietz,  
 T. R. Furlani,  W. A. Goddard III,  S. Grimme,  S. Hammes-Schiffer,  
 T. Head-Gordon,  W. J. Hehre,  Chao-Ping Hsu,  T.-C. Jagau,  Yousung Jung,  
 A. Klamt,  Jing Kong,  D. S. Lambrecht,  WanZhen Liang,  N. J. Mayhall,  
 C. W. McCurdy,  J. B. Neaton,  C. Ochsenfeld,  J. A. Parkhill,  R. Peverati,  
 V. A. Rassolov,  Yihan Shao,  L. V. Slipchenko,  T. Stauch,  R. P. Steele,  
 J. E. Subotnik,  A. J. W. Thom,  A. Tkatchenko,  D. G. Truhlar,  
 T. Van Voorhis,  T. A. Wesolowski,  K. B. Whaley,  H. L. Woodcock III,  
 P. M. Zimmerman,  S. Faraji,  P. M. W. Gill,  M. Head-Gordon,  
 J. M. Herbert,  A. I. Krylov

 Contributors to earlier versions of Q-Chem not listed above: 
 R. D. Adamson,  B. Austin,  R. Baer,  J. Baker,  G. J. O. Beran,  
 K. Brandhorst,  S. T. Brown,  E. F. C. Byrd,  A. K. Chakraborty,  
 G. K. L. Chan,  Chun-Min Chang,  Yunqing Chen,  C.-L. Cheng,  
 Siu Hung Chien,  D. M. Chipman,  D. L. Crittenden,  H. Dachsel,  
 R. J. Doerksen,  A. D. Dutoi,  R. G. Edgar,  J. Fosso-Tande,  
 L. Fusti-Molnar,  D. Ghosh,  A. Ghysels,  A. Golubeva-Zadorozhnaya,  
 J. Gonthier,  M. S. Gordon,  S. R. Gwaltney,  G. Hawkins,  J. E. Herr,  
 A. Heyden,  S. Hirata,  E. G. Hohenstein,  G. Kedziora,  F. J. Keil,  
 C. Kelley,  Jihan Kim,  R. A. King,  R. Z. Khaliullin,  P. P. Korambath,  
 W. Kurlancheek,  A. Laurent,  A. M. Lee,  M. S. Lee,  S. V. Levchenko,  
 Ching Yeh Lin,  D. Liotard,  E. Livshits,  R. C. Lochan,  I. Lotan,  
 L. A. Martinez-Martinez,  P. E. Maslen,  N. Nair,  D. P. O'Neill,  
 D. Neuhauser,  E. Neuscamman,  C. M. Oana,  R. Olivares-Amaya,  R. Olson,  
 T. M. Perrine,  B. Peters,  P. A. Pieniazek,  A. Prociuk,  Y. M. Rhee,  
 J. Ritchie,  M. A. Rohrdanz,  E. Rosta,  N. J. Russ,  H. F. Schaefer III,  
 M. W. Schmidt,  N. E. Schultz,  S. Sharma,  N. Shenvi,  C. D. Sherrill,  
 A. C. Simmonett,  A. Sodt,  T. Stein,  D. Stuck,  K. S. Thanthiriwatte,  
 V. Vanovschi,  L. Vogt,  Tao Wang,  A. Warshel,  M. A. Watson,  
 C. F. Williams,  Q. Wu,  X. Xu,  Jun Yang,  W. Zhang,  Yan Zhao

 Please cite Q-Chem as follows:
 Y. Shao et al., Mol. Phys. 113, 184-215 (2015)
 DOI: 10.1080/00268976.2014.952696

 Q-Chem 5.4.0 for Intel X86 EM64T Linux

 Parts of Q-Chem use Armadillo 9.800.1 (Horizon Scraper).
 http://arma.sourceforge.net/

 Q-Chem begins on Thu Jan 13 13:54:52 2022  

 Host: 
0

     Scratch files written to /scratch/qchem3962149//
 May1621 |scratch|qcdevops|jenkins|workspace|build_RNUM 7542   
 Processing $rem in /usr/local/qchem/config/preferences:
 Processing $rem in /home/rpaton/.qchemrc:
The previous job contains 0 fragments, simply inherited here

 Checking the input file for inconsistencies... 	...done.

--------------------------------------------------------------
User input:
--------------------------------------------------------------

$molecule
read
$end

$rem
JOBTYPE    freq
METHOD        b3lyp
BASIS         def2-tzvp
$end
--------------------------------------------------------------
 ----------------------------------------------------------------
             Standard Nuclear Orientation (Angstroms)
    I     Atom           X                Y                Z
 ----------------------------------------------------------------
    1      H      -0.3387020393    -1.5151026933     0.0000120770
    2      C      -0.2389425931    -0.4090270532    -0.0000061259
    3      C       1.1680524883     0.1347705629     0.0000006052
    4      O      -1.2211975089     0.2857320945     0.0000015748
    5      H       1.9139200862    -0.6595977353    -0.0000032679
    6      H       1.3098498253     0.7671845002     0.8791990429
    7      H       1.3098528282     0.7671981139    -0.8791873268
 ----------------------------------------------------------------
 Molecular Point Group                 C1    NOp =  1
 Largest Abelian Subgroup              C1    NOp =  1
 Nuclear Repulsion Energy =          69.78653475 hartrees
 There are       12 alpha and       12 beta electrons
 Requested basis set is def2-TZVP
 There are 49 shells and 117 basis functions

 Total QAlloc Memory Limit   8000 MB
 Mega-Array Size       188 MB
 MEM_STATIC part       192 MB

                       Distance Matrix (Angstroms)
             H (  1)   C (  2)   C (  3)   O (  4)   H (  5)   H (  6)
   C (  2)  1.110565
   C (  3)  2.234366  1.508427
   O (  4)  2.005444  1.203127  2.394014
   H (  5)  2.409605  2.167396  1.089651  3.274540
   H (  6)  2.949496  2.134299  1.092265  2.722312  1.781462
   H (  7)  2.949512  2.134299  1.092265  2.722315  1.781462  1.758386

 
 A cutoff of  1.0D-11 yielded   1208 shell pairs
 There are      7034 function pairs (      9009 Cartesian)
 Smallest overlap matrix eigenvalue = 5.63E-04
 Guess from superposition of atomic densities
 Warning:  Energy on first SCF cycle will be non-variational
 SAD guess density has 24.000000 electrons

 -----------------------------------------------------------------------
  General SCF calculation program by
  Eric Jon Sundstrom, Paul Horn, Yuezhi Mao, Dmitri Zuev, Alec White,
  David Stuck, Shaama M.S., Shane Yost, Joonho Lee, David Small,
  Daniel Levine, Susi Lehtola, Hugh Burton, Evgeny Epifanovsky,
  Bang C. Huynh
 -----------------------------------------------------------------------
 Exchange:     0.2000 Hartree-Fock + 0.0800 Slater + 0.7200 B88
 Correlation:  0.1900 VWN1RPA + 0.8100 LYP
 Using SG-1 standard quadrature grid
 using 24 threads for integral computing
 -------------------------------------------------------
 OpenMP Integral computing Module                
 Release: version 1.0, May 2013, Q-Chem Inc. Pittsburgh 
 -------------------------------------------------------
 A restricted SCF calculation will be
 performed using DIIS
 SCF converges when DIIS error is below 1.0e-08
 ---------------------------------------
  Cycle       Energy         DIIS error
 ---------------------------------------
    1    -154.2315336670      4.91e-02  
    2    -153.7970286262      8.30e-03  
    3    -153.6095856875      1.47e-02  
    4    -153.8841445373      2.88e-03  
    5    -153.8963183939      4.41e-04  
    6    -153.8965913008      8.51e-05  
    7    -153.8966015685      2.45e-05  
    8    -153.8966024526      5.96e-06  
    9    -153.8966025017      9.70e-07  
   10    -153.8966025032      1.36e-07  
   11    -153.8966025034      3.66e-08  
   12    -153.8966025033      5.30e-09  Convergence criterion met
 ---------------------------------------
 SCF time:   CPU 23.71s  wall 1.00s 
 SCF   energy in the final basis set =     -153.8966025033
 Total energy in the final basis set =     -153.8966025033
 
 --------------------------------------------------------------
 
                    Orbital Energies (a.u.)
 --------------------------------------------------------------
 
 Alpha MOs
 -- Occupied --
-19.1317 -10.2701 -10.1859  -1.0591  -0.7590  -0.5893  -0.4872  -0.4540
 -0.4465  -0.4074  -0.3739  -0.2675
 -- Virtual --
 -0.0429   0.0417   0.0645   0.1079   0.1129   0.1402   0.1588   0.2040
  0.2061   0.2427   0.2787   0.3140   0.3766   0.3863   0.3949   0.4225
  0.4299   0.4635   0.5131   0.5270   0.5315   0.5816   0.6308   0.7471
  0.7898   0.8574   0.8715   0.9120   0.9442   1.0423   1.0610   1.1212
  1.2085   1.3652   1.3774   1.4730   1.4813   1.5004   1.5183   1.5288
  1.5459   1.6324   1.6810   1.8098   1.8384   1.9052   1.9076   1.9655
  2.0189   2.0931   2.1549   2.2163   2.2763   2.3220   2.3421   2.3620
  2.5080   2.5127   2.5363   2.6736   2.6766   2.7353   2.8206   2.8238
  2.8780   2.8995   2.9252   2.9874   3.0324   3.0634   3.1120   3.1372
  3.1781   3.2841   3.3003   3.3894   3.4491   3.5035   3.6606   3.7583
  3.7941   3.8529   3.8838   3.9552   4.0947   4.2551   4.3141   4.4244
  4.5478   4.6522   5.1743   5.1790   5.5418   5.6465   6.0730   6.3068
  6.3247   6.3610   6.4280   6.7709   6.8912   7.0318  22.2513  22.6625
 43.6424
 --------------------------------------------------------------
 
          Ground-State Mulliken Net Atomic Charges

     Atom                 Charge (a.u.)
  ----------------------------------------
      1 H                     0.069106
      2 C                     0.111505
      3 C                    -0.277717
      4 O                    -0.266027
      5 H                     0.100933
      6 H                     0.131101
      7 H                     0.131100
  ----------------------------------------
  Sum of atomic charges =     0.000000

 -----------------------------------------------------------------
                    Cartesian Multipole Moments
 -----------------------------------------------------------------
    Charge (ESU x 10^10)
                -0.0000
    Dipole Moment (Debye)
         X       2.4896      Y      -1.0579      Z       0.0000
       Tot       2.7050
    Quadrupole Moments (Debye-Ang)
        XX     -21.2428     XY       1.1884     YY     -18.1349
        XZ       0.0000     YZ      -0.0000     ZZ     -17.9324
    Octopole Moments (Debye-Ang^2)
       XXX       0.9626    XXY      -0.7072    XYY      -0.5999
       YYY      -0.1299    XXZ       0.0000    XYZ       0.0000
       YYZ       0.0000    XZZ      -0.9801    YZZ       1.2103
       ZZZ       0.0000
    Hexadecapole Moments (Debye-Ang^3)
      XXXX    -153.0365   XXXY      -2.0190   XXYY     -31.1323
      XYYY      -0.2150   YYYY     -45.0815   XXXZ       0.0000
      XXYZ       0.0000   XYYZ      -0.0000   YYYZ      -0.0000
      XXZZ     -28.0195   XYZZ       0.7821   YYZZ     -11.0923
      XZZZ       0.0000   YZZZ       0.0000   ZZZZ     -23.9520
 -----------------------------------------------------------------
 Calculating MO derivatives via CPSCF
    1     0    24    0.0441504  
    2     0    24    0.0090942  
    3     0    24    0.0007024  
    4     1    23    0.0000478  
    5    22     2    0.0000023  
    6    24     0    0.0000001  Converged
 Time for AOints: 7.3 s (CPU) 0.3 s (wall)
 ------------------------------------------------------------------------------
                     AOints        : Timing summary (seconds)
 ------------------------------------------------------------------------------
     job step          cpu (% of tot)      sys (% of tot)     wall (% of tot)
 ------------------------------------------------------------------------------
  AOints            0.7274E+01 ( 8.2)   0.1500E-04 ( 5.0)   0.3042E+00 ( 8.0)
 ------------------------------------------------------------------------------
   Grand Totals     0.8862E+02          0.3020E-03          0.3822E+01
 ------------------------------------------------------------------------------
 Polarizability Matrix (a.u.)
            1           2           3
    1 -32.9418629   1.3361958   0.0000262
    2   1.3361958 -29.3076907   0.0000401
    3   0.0000262   0.0000401 -21.6301370
 Calculating analytic Hessian of the SCF energy
 
 Direct stationary perturbation theory relativistic correction:
 
 rels  =       0.047463576425
 relv  =      -0.196844522807
 rel2e =       0.069571896858
 E_rel =      -0.079809049524
 
 **********************************************************************
 **                                                                  **
 **                       VIBRATIONAL ANALYSIS                       **
 **                       --------------------                       **
 **                                                                  **
 **        VIBRATIONAL FREQUENCIES (CM**-1) AND NORMAL MODES         **
 **     FORCE CONSTANTS (mDYN/ANGSTROM) AND REDUCED MASSES (AMU)     **
 **                  INFRARED INTENSITIES (KM/MOL)                   **
 **                                                                  **
 **********************************************************************
 

 Mode:                 1                      2                      3
 Frequency:      -188.22                 511.33                 750.64
 Force Cnst:      0.0249                 0.4141                 0.3905
 Red. Mass:       1.1940                 2.6884                 1.1763
 IR Active:          YES                    YES                    YES
 IR Intens:        6.659                 12.382                  1.569
 Raman Active:       YES                    YES                    YES
               X      Y      Z        X      Y      Z        X      Y      Z
 H         -0.000 -0.000 -0.412   -0.202 -0.181 -0.000    0.000  0.000  0.574
 C         -0.000  0.000 -0.093   -0.012 -0.205 -0.000   -0.000 -0.000 -0.087
 C          0.000  0.000  0.027   -0.184  0.026  0.000   -0.000  0.000 -0.071
 O          0.000 -0.000  0.075    0.213  0.104  0.000    0.000 -0.000  0.045
 H         -0.000 -0.000  0.512    0.212  0.402  0.000   -0.000 -0.000  0.297
 H         -0.197  0.419 -0.250   -0.527  0.124 -0.016   -0.477 -0.183  0.151
 H          0.197 -0.419 -0.250   -0.527  0.124  0.016    0.477  0.183  0.151
 TransDip  -0.000 -0.000 -0.083   -0.084 -0.075 -0.000   -0.000  0.000  0.040

 Mode:                 4                      5                      6
 Frequency:       927.45                1096.53                1134.93
 Force Cnst:      1.1754                 1.3927                 1.3055
 Red. Mass:       2.3192                 1.9659                 1.7202
 IR Active:          YES                    YES                    YES
 IR Intens:       13.277                 40.545                  0.353
 Raman Active:       YES                    YES                    YES
               X      Y      Z        X      Y      Z        X      Y      Z
 H         -0.401 -0.088  0.000   -0.150 -0.178  0.000   -0.000 -0.000 -0.698
 C         -0.155 -0.117 -0.000   -0.119 -0.173 -0.000   -0.000 -0.000  0.210
 C          0.260  0.008  0.000    0.004  0.195  0.000    0.000  0.000 -0.135
 O         -0.092  0.043  0.000    0.057  0.020  0.000    0.000  0.000 -0.042
 H          0.700  0.419  0.000   -0.441 -0.250 -0.000   -0.000 -0.000  0.282
 H         -0.047  0.145 -0.043    0.533 -0.081  0.104   -0.349 -0.229  0.102
 H         -0.047  0.145  0.043    0.533 -0.081 -0.104    0.349  0.229  0.102
 TransDip  -0.088 -0.077  0.000   -0.179 -0.098 -0.000   -0.000 -0.000  0.019

 Mode:                 7                      8                      9
 Frequency:      1375.48                1428.83                1466.41
 Force Cnst:      1.3436                 1.4420                 1.3466
 Red. Mass:       1.2053                 1.1988                 1.0629
 IR Active:          YES                    YES                    YES
 IR Intens:       15.022                 15.382                 13.530
 Raman Active:       YES                    YES                    YES
               X      Y      Z        X      Y      Z        X      Y      Z
 H          0.300 -0.040  0.000    0.935 -0.172 -0.000   -0.055 -0.022  0.000
 C         -0.012 -0.015 -0.000   -0.059 -0.061 -0.000   -0.019 -0.016  0.000
 C         -0.108 -0.074 -0.000    0.052  0.002  0.000    0.060 -0.022  0.000
 O         -0.004  0.019 -0.000   -0.030  0.068 -0.000    0.014 -0.006 -0.000
 H          0.304  0.304  0.000   -0.049 -0.096 -0.000   -0.366 -0.395 -0.000
 H          0.447  0.248 -0.302   -0.160 -0.058  0.075   -0.143  0.479 -0.318
 H          0.447  0.248  0.302   -0.160 -0.058 -0.075   -0.143  0.479  0.318
 TransDip   0.106  0.065  0.000   -0.077 -0.099 -0.000   -0.073  0.092 -0.000

 Mode:                10                     11                     12
 Frequency:      1474.84                1806.54                2877.91
 Force Cnst:      1.3418                19.2476                 5.2837
 Red. Mass:       1.0470                10.0100                 1.0828
 IR Active:          YES                    YES                    YES
 IR Intens:        8.444                178.066                127.653
 Raman Active:       YES                    YES                    YES
               X      Y      Z        X      Y      Z        X      Y      Z
 H          0.000  0.000  0.038   -0.364 -0.211 -0.000    0.109  0.989 -0.000
 C         -0.000 -0.000 -0.028    0.602 -0.374 -0.000   -0.013 -0.081  0.000
 C          0.000  0.000 -0.052   -0.041  0.029 -0.000   -0.001  0.003  0.000
 O         -0.000  0.000  0.005   -0.393  0.276  0.000    0.003 -0.001  0.000
 H         -0.000 -0.000  0.726   -0.226 -0.145 -0.000    0.025 -0.042 -0.000
 H          0.430 -0.216  0.052    0.067  0.045 -0.036   -0.003 -0.000 -0.002
 H         -0.430  0.216  0.052    0.067  0.045  0.036   -0.003 -0.000  0.002
 TransDip  -0.000 -0.000  0.093    0.393 -0.168  0.000   -0.065 -0.356  0.000

 Mode:                13                     14                     15
 Frequency:      3039.77                3102.42                3126.29
 Force Cnst:      5.6335                 6.2339                 6.3555
 Red. Mass:       1.0348                 1.0993                 1.1037
 IR Active:          YES                    YES                    YES
 IR Intens:        1.587                  3.655                 17.474
 Raman Active:       YES                    YES                    YES
               X      Y      Z        X      Y      Z        X      Y      Z
 H         -0.006 -0.019  0.000    0.000  0.000 -0.003    0.006  0.041 -0.000
 C          0.001  0.002 -0.000   -0.000 -0.000 -0.001   -0.001 -0.005  0.000
 C         -0.041 -0.027 -0.000    0.000 -0.000 -0.091    0.041 -0.084  0.000
 O          0.000 -0.000  0.000    0.000  0.000  0.000    0.000  0.000  0.000
 H          0.336 -0.372 -0.000   -0.000  0.000 -0.018   -0.589  0.631  0.000
 H          0.070  0.349  0.496    0.092  0.418  0.559    0.052  0.189  0.290
 H          0.070  0.349 -0.496   -0.092 -0.418  0.559    0.052  0.189 -0.290
 TransDip  -0.037  0.016  0.000    0.000  0.000 -0.061    0.093 -0.096  0.000

 STANDARD THERMODYNAMIC QUANTITIES AT   298.15 K  AND     1.00 ATM

   This Molecule has  1 Imaginary Frequencies
   Zero point vibrational energy:       34.480 kcal/mol

   Atom    1 Element H  Has Mass    1.00783
   Atom    2 Element C  Has Mass   12.00000
   Atom    3 Element C  Has Mass   12.00000
   Atom    4 Element O  Has Mass   15.99491
   Atom    5 Element H  Has Mass    1.00783
   Atom    6 Element H  Has Mass    1.00783
   Atom    7 Element H  Has Mass    1.00783
   Molecular Mass:    44.026230 amu
   Principal axes and moments of inertia in amu*Bohr^2:
                             1           2           3
    Eigenvalues --       32.08152   176.32972   197.28333
          X               0.99957     0.02945     0.00000
          Y              -0.02945     0.99957    -0.00000
          Z              -0.00000     0.00000     1.00000
   Rotational Symmetry Number is   1
   The Molecule is an Asymmetric Top
   Translational Enthalpy:        0.889 kcal/mol
   Rotational Enthalpy:           0.889 kcal/mol
   Vibrational Enthalpy:         34.752 kcal/mol
   gas constant (RT):             0.592 kcal/mol
   Translational Entropy:        37.272  cal/mol.K
   Rotational Entropy:           21.639  cal/mol.K
   Vibrational Entropy:           1.190  cal/mol.K

   Total Enthalpy:               37.122 kcal/mol
   Total Entropy:                60.101  cal/mol.K
 Total job time:  7.02s(wall), 161.50s(cpu) 
 Thu Jan 13 13:54:59 2022

        *************************************************************
        *                                                           *
        *  Thank you very much for using Q-Chem.  Have a nice day.  *
        *                                                           *
        *************************************************************


remove work dirs /scratch/qchem3962149.0 -- /scratch/qchem3962149.-1
rm -rf /scratch/qchem3962149
