
                                 *****************
                                 * O   R   C   A *
                                 *****************

                                            #,                                       
                                            ###                                      
                                            ####                                     
                                            #####                                    
                                            ######                                   
                                           ########,                                 
                                     ,,################,,,,,                         
                               ,,#################################,,                 
                          ,,##########################################,,             
                       ,#########################################, ''#####,          
                    ,#############################################,,   '####,        
                  ,##################################################,,,,####,       
                ,###########''''           ''''###############################       
              ,#####''   ,,,,##########,,,,          '''####'''          '####       
            ,##' ,,,,###########################,,,                        '##       
           ' ,,###''''                  '''############,,,                           
         ,,##''                                '''############,,,,        ,,,,,,###''
      ,#''                                            '''#######################'''  
     '                                                          ''''####''''         
             ,#######,   #######,   ,#######,      ##                                
            ,#'     '#,  ##    ##  ,#'     '#,    #''#        ######   ,####,        
            ##       ##  ##   ,#'  ##            #'  '#       #        #'  '#        
            ##       ##  #######   ##           ,######,      #####,   #    #        
            '#,     ,#'  ##    ##  '#,     ,#' ,#      #,         ##   #,  ,#        
             '#######'   ##     ##  '#######'  #'      '#     #####' # '####'        



                  #######################################################
                  #                        -***-                        #
                  #          Department of theory and spectroscopy      #
                  #    Directorship and core code : Frank Neese         #
                  #        Max Planck Institute fuer Kohlenforschung    #
                  #                Kaiser Wilhelm Platz 1               #
                  #                 D-45470 Muelheim/Ruhr               #
                  #                      Germany                        #
                  #                                                     #
                  #                  All rights reserved                #
                  #                        -***-                        #
                  #######################################################


                         Program Version 5.0.1 -  RELEASE  -


 With contributions from (in alphabetic order):
   Daniel Aravena         : Magnetic Suceptibility
   Michael Atanasov       : Ab Initio Ligand Field Theory (pilot matlab implementation)
   Alexander A. Auer      : GIAO ZORA, VPT2 properties, NMR spectrum
   Ute Becker             : Parallelization
   Giovanni Bistoni       : ED, misc. LED, open-shell LED, HFLD
   Martin Brehm           : Molecular dynamics
   Dmytro Bykov           : SCF Hessian
   Vijay G. Chilkuri      : MRCI spin determinant printing, contributions to CSF-ICE
   Dipayan Datta          : RHF DLPNO-CCSD density
   Achintya Kumar Dutta   : EOM-CC, STEOM-CC
   Dmitry Ganyushin       : Spin-Orbit,Spin-Spin,Magnetic field MRCI
   Miquel Garcia          : C-PCM and meta-GGA Hessian, CC/C-PCM, Gaussian charge scheme
   Yang Guo               : DLPNO-NEVPT2, F12-NEVPT2, CIM, IAO-localization
   Andreas Hansen         : Spin unrestricted coupled pair/coupled cluster methods
   Benjamin Helmich-Paris : MC-RPA, TRAH-SCF, COSX integrals
   Lee Huntington         : MR-EOM, pCC
   Robert Izsak           : Overlap fitted RIJCOSX, COSX-SCS-MP3, EOM
   Marcus Kettner         : VPT2
   Christian Kollmar      : KDIIS, OOCD, Brueckner-CCSD(T), CCSD density, CASPT2, CASPT2-K
   Simone Kossmann        : Meta GGA functionals, TD-DFT gradient, OOMP2, MP2 Hessian
   Martin Krupicka        : Initial AUTO-CI
   Lucas Lang             : DCDCAS
   Marvin Lechner         : AUTO-CI (C++ implementation), FIC-MRCC
   Dagmar Lenk            : GEPOL surface, SMD
   Dimitrios Liakos       : Extrapolation schemes; Compound Job, initial MDCI parallelization
   Dimitrios Manganas     : Further ROCIS development; embedding schemes
   Dimitrios Pantazis     : SARC Basis sets
   Anastasios Papadopoulos: AUTO-CI, single reference methods and gradients
   Taras Petrenko         : DFT Hessian,TD-DFT gradient, ASA, ECA, R-Raman, ABS, FL, XAS/XES, NRVS
   Peter Pinski           : DLPNO-MP2, DLPNO-MP2 Gradient
   Christoph Reimann      : Effective Core Potentials
   Marius Retegan         : Local ZFS, SOC
   Christoph Riplinger    : Optimizer, TS searches, QM/MM, DLPNO-CCSD(T), (RO)-DLPNO pert. Triples
   Tobias Risthaus        : Range-separated hybrids, TD-DFT gradient, RPA, STAB
   Michael Roemelt        : Original ROCIS implementation
   Masaaki Saitow         : Open-shell DLPNO-CCSD energy and density
   Barbara Sandhoefer     : DKH picture change effects
   Avijit Sen             : IP-ROCIS
   Kantharuban Sivalingam : CASSCF convergence, NEVPT2, FIC-MRCI
   Bernardo de Souza      : ESD, SOC TD-DFT
   Georgi Stoychev        : AutoAux, RI-MP2 NMR, DLPNO-MP2 response
   Willem Van den Heuvel  : Paramagnetic NMR
   Boris Wezisla          : Elementary symmetry handling
   Frank Wennmohs         : Technical directorship


 We gratefully acknowledge several colleagues who have allowed us to
 interface, adapt or use parts of their codes:
   Stefan Grimme, W. Hujo, H. Kruse, P. Pracht,  : VdW corrections, initial TS optimization,
                  C. Bannwarth, S. Ehlert          DFT functionals, gCP, sTDA/sTD-DF
   Ed Valeev, F. Pavosevic, A. Kumar             : LibInt (2-el integral package), F12 methods
   Garnet Chan, S. Sharma, J. Yang, R. Olivares  : DMRG
   Ulf Ekstrom                                   : XCFun DFT Library
   Mihaly Kallay                                 : mrcc  (arbitrary order and MRCC methods)
   Jiri Pittner, Ondrej Demel                    : Mk-CCSD
   Frank Weinhold                                : gennbo (NPA and NBO analysis)
   Christopher J. Cramer and Donald G. Truhlar   : smd solvation model
   Lars Goerigk                                  : TD-DFT with DH, B97 family of functionals
   V. Asgeirsson, H. Jonsson                     : NEB implementation
   FAccTs GmbH                                   : IRC, NEB, NEB-TS, DLPNO-Multilevel, CI-OPT
                                                   MM, QMMM, 2- and 3-layer-ONIOM, Crystal-QMMM,
                                                   LR-CPCM, SF, NACMEs, symmetry and pop. for TD-DFT,
                                                   nearIR, NL-DFT gradient (VV10), updates on ESD,
                                                   ML-optimized integration grids
   S Lehtola, MJT Oliveira, MAL Marques          : LibXC Library
   Liviu Ungur et al                             : ANISO software


 Your calculation uses the libint2 library for the computation of 2-el integrals
 For citations please refer to: http://libint.valeyev.net

 Your ORCA version has been built with support for libXC version: 5.1.0
 For citations please refer to: https://tddft.org/programs/libxc/

 This ORCA versions uses:
   CBLAS   interface :  Fast vector & matrix operations
   LAPACKE interface :  Fast linear algebra routines
   SCALAPACK package :  Parallel linear algebra routines
   Shared memory     :  Shared parallel matrices
   BLAS/LAPACK       :  OpenBLAS 0.3.15  USE64BITINT DYNAMIC_ARCH NO_AFFINITY SkylakeX SINGLE_THREADED
        Core in use  :  SkylakeX
   Copyright (c) 2011-2014, The OpenBLAS Project


Your calculation utilizes the atom-pairwise dispersion correction
with the Becke-Johnson damping scheme (D3BJ)
Cite in your paper:
S.Grimme, S.Ehrlich, L.Goerigk, J Comput Chem, (2011), 32, 1456–1465 
S.Grimme, J.Antony, S.Ehrlich and H.Krieg, J.Chem.Phys., 132, (2010), 154104 
   

================================================================================

----- Orbital basis set information -----
Your calculation utilizes the basis: def2-TZVP
   F. Weigend and R. Ahlrichs, Phys. Chem. Chem. Phys. 7, 3297 (2005).

----- AuxJ basis set information -----
Your calculation utilizes the auxiliary basis: def2/J
   F. Weigend, Phys. Chem. Chem. Phys. 8, 1057 (2006).

================================================================================
                                        WARNINGS
                       Please study these warnings very carefully!
================================================================================


WARNING: Geometry Optimization
  ===> : Switching off AutoStart
         For restart on a previous wavefunction, please use MOREAD

INFO   : the flag for use of the SHARK integral package has been found!

================================================================================
                                       INPUT FILE
================================================================================
NAME = acetaldehyde.inp
|  1> ! pal8 B3LYP def2-tzvp D3BJ  Opt Freq
|  2> * xyz 0 1
|  3> H          0.337850    1.515009    0.000024
|  4> C          0.238586    0.408994   -0.000012
|  5> C         -1.167631   -0.134957    0.000001
|  6> O          1.220903   -0.285563    0.000003
|  7> H         -1.913113    0.659514    0.000004
|  8> H         -1.308837   -0.767116    0.879244
|  9> H         -1.308850   -0.767124   -0.879233
| 10> *
| 11> 
| 12>                          ****END OF INPUT****
================================================================================

                       *****************************
                       * Geometry Optimization Run *
                       *****************************

Geometry optimization settings:
Update method            Update   .... BFGS
Choice of coordinates    CoordSys .... Z-matrix Internals
Initial Hessian          InHess   .... Almoef's Model

Convergence Tolerances:
Energy Change            TolE     ....  5.0000e-06 Eh
Max. Gradient            TolMAXG  ....  3.0000e-04 Eh/bohr
RMS Gradient             TolRMSG  ....  1.0000e-04 Eh/bohr
Max. Displacement        TolMAXD  ....  4.0000e-03 bohr
RMS Displacement         TolRMSD  ....  2.0000e-03 bohr
Strict Convergence                ....  False
------------------------------------------------------------------------------
                        ORCA OPTIMIZATION COORDINATE SETUP
------------------------------------------------------------------------------

The optimization will be done in new redundant internal coordinates
Making redundant internal coordinates   ...  (new redundants) done
Evaluating the initial hessian          ...  (Almloef) done
Evaluating the coordinates              ...  done
Calculating the B-matrix                .... done
Calculating the G-matrix                .... done
Diagonalizing the G-matrix              .... done
The first mode is                       ....    6
The number of degrees of freedom        ....   15

    -----------------------------------------------------------------
                    Redundant Internal Coordinates


    -----------------------------------------------------------------
         Definition                    Initial Value    Approx d2E/dq
    -----------------------------------------------------------------
      1. B(C   1,H   0)                  1.1105         0.334026   
      2. B(C   2,C   1)                  1.5078         0.405383   
      3. B(O   3,C   1)                  1.2031         1.112050   
      4. B(H   4,C   2)                  1.0895         0.360812   
      5. B(H   5,C   2)                  1.0921         0.357363   
      6. B(H   6,C   2)                  1.0921         0.357364   
      7. A(C   2,C   1,O   3)          123.5900         0.443795   
      8. A(H   0,C   1,O   3)          120.1341         0.382702   
      9. A(H   0,C   1,C   2)          116.2759         0.324668   
     10. A(H   4,C   2,H   5)          109.4902         0.290581   
     11. A(C   1,C   2,H   5)          109.2344         0.328298   
     12. A(C   1,C   2,H   6)          109.2344         0.328298   
     13. A(H   5,C   2,H   6)          107.2412         0.290144   
     14. A(H   4,C   2,H   6)          109.4903         0.290581   
     15. A(C   1,C   2,H   4)          112.0305         0.328819   
     16. D(H   4,C   2,C   1,O   3)    179.9988         0.012182   
     17. D(H   5,C   2,C   1,H   0)   -121.4903         0.012182   
     18. D(H   5,C   2,C   1,O   3)     58.5062         0.012182   
     19. D(H   6,C   2,C   1,H   0)    121.4952         0.012182   
     20. D(H   6,C   2,C   1,O   3)    -58.5083         0.012182   
     21. D(H   4,C   2,C   1,H   0)      0.0023         0.012182   
    -----------------------------------------------------------------

Number of atoms                         .... 7
Number of degrees of freedom            .... 21

         *************************************************************
         *                GEOMETRY OPTIMIZATION CYCLE   1            *
         *************************************************************
---------------------------------
CARTESIAN COORDINATES (ANGSTROEM)
---------------------------------
  H      0.337850    1.515009    0.000024
  C      0.238586    0.408994   -0.000012
  C     -1.167631   -0.134957    0.000001
  O      1.220903   -0.285563    0.000003
  H     -1.913113    0.659514    0.000004
  H     -1.308837   -0.767116    0.879244
  H     -1.308850   -0.767124   -0.879233

----------------------------
CARTESIAN COORDINATES (A.U.)
----------------------------
  NO LB      ZA    FRAG     MASS         X           Y           Z
   0 H     1.0000    0     1.008    0.638444    2.862952    0.000045
   1 C     6.0000    0    12.011    0.450862    0.772887   -0.000023
   2 C     6.0000    0    12.011   -2.206503   -0.255032    0.000002
   3 O     8.0000    0    15.999    2.307172   -0.539636    0.000006
   4 H     1.0000    0     1.008   -3.615260    1.246301    0.000008
   5 H     1.0000    0     1.008   -2.473343   -1.449639    1.661530
   6 H     1.0000    0     1.008   -2.473368   -1.449654   -1.661510

--------------------------------
INTERNAL COORDINATES (ANGSTROEM)
--------------------------------
 H      0   0   0     0.000000000000     0.00000000     0.00000000
 C      1   0   0     1.110460500521     0.00000000     0.00000000
 C      2   1   0     1.507756260693   116.27591305     0.00000000
 O      2   1   3     1.203061143485   120.13408853   180.00337221
 H      3   2   1     1.089462060915   112.03051940     0.00000000
 H      3   2   1     1.092077098362   109.23441742   238.50966312
 H      3   2   1     1.092076164288   109.23442612   121.49518018

---------------------------
INTERNAL COORDINATES (A.U.)
---------------------------
 H      0   0   0     0.000000000000     0.00000000     0.00000000
 C      1   0   0     2.098466228522     0.00000000     0.00000000
 C      2   1   0     2.849246409415   116.27591305     0.00000000
 O      2   1   3     2.273456083548   120.13408853   180.00337221
 H      3   2   1     2.058784928428   112.03051940     0.00000000
 H      3   2   1     2.063726633031   109.23441742   238.50966312
 H      3   2   1     2.063724867888   109.23442612   121.49518018

---------------------
BASIS SET INFORMATION
---------------------
There are 3 groups of distinct atoms

 Group   1 Type H   : 5s1p contracted to 3s1p pattern {311/1}
 Group   2 Type C   : 11s6p2d1f contracted to 5s3p2d1f pattern {62111/411/11/1}
 Group   3 Type O   : 11s6p2d1f contracted to 5s3p2d1f pattern {62111/411/11/1}

Atom   0H    basis set group =>   1
Atom   1C    basis set group =>   2
Atom   2C    basis set group =>   2
Atom   3O    basis set group =>   3
Atom   4H    basis set group =>   1
Atom   5H    basis set group =>   1
Atom   6H    basis set group =>   1
---------------------------------
AUXILIARY/J BASIS SET INFORMATION
---------------------------------
There are 3 groups of distinct atoms

 Group   1 Type H   : 5s2p1d contracted to 3s1p1d pattern {311/2/1}
 Group   2 Type C   : 12s5p4d2f1g contracted to 6s4p3d1f1g pattern {711111/2111/211/2/1}
 Group   3 Type O   : 12s5p4d2f1g contracted to 6s4p3d1f1g pattern {711111/2111/211/2/1}

Atom   0H    basis set group =>   1
Atom   1C    basis set group =>   2
Atom   2C    basis set group =>   2
Atom   3O    basis set group =>   3
Atom   4H    basis set group =>   1
Atom   5H    basis set group =>   1
Atom   6H    basis set group =>   1


           ************************************************************
           *        Program running with 8 parallel MPI-processes     *
           *              working on a common directory               *
           ************************************************************
------------------------------------------------------------------------------
                           ORCA GTO INTEGRAL CALCULATION
                           -- RI-GTO INTEGRALS CHOSEN --
------------------------------------------------------------------------------
------------------------------------------------------------------------------
                   ___                                                        
                  /   \      - P O W E R E D   B Y -                         
                 /     \                                                     
                 |  |  |   _    _      __       _____    __    __             
                 |  |  |  | |  | |    /  \     |  _  \  |  |  /  |          
                  \  \/   | |  | |   /    \    | | | |  |  | /  /          
                 / \  \   | |__| |  /  /\  \   | |_| |  |  |/  /          
                |  |  |   |  __  | /  /__\  \  |    /   |      \           
                |  |  |   | |  | | |   __   |  |    \   |  |\   \          
                \     /   | |  | | |  |  |  |  | |\  \  |  | \   \       
                 \___/    |_|  |_| |__|  |__|  |_| \__\ |__|  \__/        
                                                                              
                      - O R C A' S   B I G   F R I E N D -                    
                                      &                                       
                       - I N T E G R A L  F E E D E R -                       
                                                                              
 v1 FN, 2020, v2 2021                                                         
------------------------------------------------------------------------------


Reading SHARK input file acetaldehyde.SHARKINP.tmp ... ok
----------------------
SHARK INTEGRAL PACKAGE
----------------------

Number of atoms                             ...      7
Number of basis functions                   ...    117
Number of shells                            ...     49
Maximum angular momentum                    ...      3
Integral batch strategy                     ... SHARK/LIBINT Hybrid
RI-J (if used) integral strategy            ... SPLIT-RIJ (Revised 2003 algorithm where possible)
Printlevel                                  ...      1
Contraction scheme used                     ... SEGMENTED contraction
Coulomb Range Separation                    ... NOT USED
Exchange Range Separation                   ... NOT USED
Finite Nucleus Model                        ... NOT USED
Auxiliary Coulomb fitting basis             ... AVAILABLE
   # of basis functions in Aux-J            ...    191
   # of shells in Aux-J                     ...     65
   Maximum angular momentum in Aux-J        ...      4
Auxiliary J/K fitting basis                 ... NOT available
Auxiliary Correlation fitting basis         ... NOT available
Auxiliary 'external' fitting basis          ... NOT available
Integral threshold                          ...     2.500000e-11
Primitive cut-off                           ...     2.500000e-12
Primitive pair pre-selection threshold      ...     2.500000e-12

Calculating pre-screening integrals         ... done (  0.0 sec) Dimension = 49
Organizing shell pair data                  ... done (  0.0 sec)
Shell pair information
Total number of shell pairs                 ...      1225
Shell pairs after pre-screening             ...      1211
Total number of primitive shell pairs       ...      3648
Primitive shell pairs kept                  ...      3073
          la=0 lb=0:    368 shell pairs
          la=1 lb=0:    349 shell pairs
          la=1 lb=1:     91 shell pairs
          la=2 lb=0:    160 shell pairs
          la=2 lb=1:     78 shell pairs
          la=2 lb=2:     21 shell pairs
          la=3 lb=0:     81 shell pairs
          la=3 lb=1:     39 shell pairs
          la=3 lb=2:     18 shell pairs
          la=3 lb=3:      6 shell pairs

Calculating one electron integrals          ... done (  0.0 sec)
Calculating RI/J V-Matrix + Cholesky decomp.... done (  0.0 sec)
Calculating Nuclear repulsion               ... done (  0.0 sec) ENN=     69.803139477485 Eh

SHARK setup successfully completed in   0.1 seconds

Maximum memory used throughout the entire GTOINT-calculation: 13.7 MB


           ************************************************************
           *        Program running with 8 parallel MPI-processes     *
           *              working on a common directory               *
           ************************************************************
-------------------------------------------------------------------------------
                                 ORCA SCF
-------------------------------------------------------------------------------

------------
SCF SETTINGS
------------
Hamiltonian:
 Density Functional     Method          .... DFT(GTOs)
 Exchange Functional    Exchange        .... B88
   X-Alpha parameter    XAlpha          ....  0.666667
   Becke's b parameter  XBeta           ....  0.004200
 Correlation Functional Correlation     .... LYP
 LDA part of GGA corr.  LDAOpt          .... VWN-5
 Gradients option       PostSCFGGA      .... off
 Hybrid DFT is turned on
   Fraction HF Exchange ScalHFX         ....  0.200000
   Scaling of DF-GGA-X  ScalDFX         ....  0.720000
   Scaling of DF-GGA-C  ScalDFC         ....  0.810000
   Scaling of DF-LDA-C  ScalLDAC        ....  1.000000
   Perturbative correction              ....  0.000000
   Density functional embedding theory  .... OFF
   NL short-range parameter             ....  4.800000
 RI-approximation to the Coulomb term is turned on
   Number of AuxJ basis functions       .... 191
   RIJ-COSX (HFX calculated with COS-X)).... on


General Settings:
 Integral files         IntName         .... acetaldehyde
 Hartree-Fock type      HFTyp           .... RHF
 Total Charge           Charge          ....    0
 Multiplicity           Mult            ....    1
 Number of Electrons    NEL             ....   24
 Basis Dimension        Dim             ....  117
 Nuclear Repulsion      ENuc            ....     69.8031394775 Eh

Convergence Acceleration:
 DIIS                   CNVDIIS         .... on
   Start iteration      DIISMaxIt       ....    12
   Startup error        DIISStart       ....  0.200000
   # of expansion vecs  DIISMaxEq       ....     5
   Bias factor          DIISBfac        ....   1.050
   Max. coefficient     DIISMaxC        ....  10.000
 Trust-Rad. Augm. Hess. CNVTRAH         .... auto
   Auto Start mean grad. ratio tolernc. ....  1.125000
   Auto Start start iteration           ....    20
   Auto Start num. interpolation iter.  ....    10
   Max. Number of Micro iterations      ....    16
   Max. Number of Macro iterations      .... Maxiter - #DIIS iter
   Number of Davidson start vectors     ....     2
   Converg. threshold I  (grad. norm)   ....   1.000e-05
   Converg. threshold II (energy diff.) ....   1.000e-08
   Grad. Scal. Fac. for Micro threshold ....   0.100
   Minimum threshold for Micro iter.    ....   0.010
   NR start threshold (gradient norm)   ....   0.001
   Initial trust radius                 ....   0.400
   Minimum AH scaling param. (alpha)    ....   1.000
   Maximum AH scaling param. (alpha)    .... 1000.000
   Orbital update algorithm             .... Taylor
   White noise on init. David. guess    .... on
   Maximum white noise                  ....   0.010
   Quad. conv. algorithm                .... NR
 SOSCF                  CNVSOSCF        .... on
   Start iteration      SOSCFMaxIt      ....   150
   Startup grad/error   SOSCFStart      ....  0.003300
 Level Shifting         CNVShift        .... on
   Level shift para.    LevelShift      ....    0.2500
   Turn off err/grad.   ShiftErr        ....    0.0010
 Zerner damping         CNVZerner       .... off
 Static damping         CNVDamp         .... on
   Fraction old density DampFac         ....    0.7000
   Max. Damping (<1)    DampMax         ....    0.9800
   Min. Damping (>=0)   DampMin         ....    0.0000
   Turn off err/grad.   DampErr         ....    0.1000
 Fernandez-Rico         CNVRico         .... off

SCF Procedure:
 Maximum # iterations   MaxIter         ....   125
 SCF integral mode      SCFMode         .... Direct
   Integral package                     .... SHARK and LIBINT hybrid scheme
 Reset frequency        DirectResetFreq ....    20
 Integral Threshold     Thresh          ....  2.500e-11 Eh
 Primitive CutOff       TCut            ....  2.500e-12 Eh

Convergence Tolerance:
 Convergence Check Mode ConvCheckMode   .... Total+1el-Energy
 Convergence forced     ConvForced      .... 0
 Energy Change          TolE            ....  1.000e-08 Eh
 1-El. energy change                    ....  1.000e-05 Eh
 Orbital Gradient       TolG            ....  1.000e-05
 Orbital Rotation angle TolX            ....  1.000e-05
 DIIS Error             TolErr          ....  5.000e-07


Diagonalization of the overlap matrix:
Smallest eigenvalue                        ... 5.602e-04
Time for diagonalization                   ...    0.002 sec
Threshold for overlap eigenvalues          ... 1.000e-08
Number of eigenvalues below threshold      ... 0
Time for construction of square roots      ...    0.001 sec
Total time needed                          ...    0.003 sec

Time for model grid setup =    0.016 sec

------------------------------
INITIAL GUESS: MODEL POTENTIAL
------------------------------
Loading Hartree-Fock densities                     ... done
Calculating cut-offs                               ... done
Initializing the effective Hamiltonian             ... done
Setting up the integral package (SHARK)            ... done
Starting the Coulomb interaction                   ... done (   0.0 sec)
Reading the grid                                   ... done
Mapping shells                                     ... done
Starting the XC term evaluation                    ... done (   0.0 sec)
  promolecular density results
     # of electrons  =     23.998795808
     EX              =    -19.629995928
     EC              =     -0.792597475
     EX+EC           =    -20.422593402
Transforming the Hamiltonian                       ... done (   0.0 sec)
Diagonalizing the Hamiltonian                      ... done (   0.0 sec)
Back transforming the eigenvectors                 ... done (   0.0 sec)
Now organizing SCF variables                       ... done
                      ------------------
                      INITIAL GUESS DONE (   0.0 sec)
                      ------------------
-------------------
DFT GRID GENERATION
-------------------

General Integration Accuracy     IntAcc      ... 4.388
Radial Grid Type                 RadialGrid  ... OptM3 with GC (2021)
Angular Grid (max. ang.)         AngularGrid ... 4 (Lebedev-302)
Angular grid pruning method      GridPruning ... 4 (adaptive)
Weight generation scheme         WeightScheme... Becke
Basis function cutoff            BFCut       ... 1.0000e-11
Integration weight cutoff        WCut        ... 1.0000e-14
Angular grids for H and He will be reduced by one unit
Partially contracted basis set               ... off
Rotationally invariant grid construction     ... off

Total number of grid points                  ...    31339
Total number of batches                      ...      494
Average number of points per batch           ...       63
Average number of grid points per atom       ...     4477
Time for grid setup =    0.101 sec

--------------------
COSX GRID GENERATION
--------------------

GRIDX 1
-------
General Integration Accuracy     IntAcc      ... 3.816
Radial Grid Type                 RadialGrid  ... OptM3 with GC (2021)
Angular Grid (max. ang.)         AngularGrid ... 1 (Lebedev-50)
Angular grid pruning method      GridPruning ... 4 (adaptive)
Weight generation scheme         WeightScheme... Becke
Basis function cutoff            BFCut       ... 1.0000e-11
Integration weight cutoff        WCut        ... 1.0000e-14
Angular grids for H and He will be reduced by one unit
Partially contracted basis set               ... on
Rotationally invariant grid construction     ... off

Total number of grid points                  ...     4029
Total number of batches                      ...       67
Average number of points per batch           ...       60
Average number of grid points per atom       ...      576
UseSFitting                                  ... on

GRIDX 2
-------
General Integration Accuracy     IntAcc      ... 4.020
Radial Grid Type                 RadialGrid  ... OptM3 with GC (2021)
Angular Grid (max. ang.)         AngularGrid ... 2 (Lebedev-110)
Angular grid pruning method      GridPruning ... 4 (adaptive)
Weight generation scheme         WeightScheme... Becke
Basis function cutoff            BFCut       ... 1.0000e-11
Integration weight cutoff        WCut        ... 1.0000e-14
Angular grids for H and He will be reduced by one unit
Partially contracted basis set               ... on
Rotationally invariant grid construction     ... off

Total number of grid points                  ...     8740
Total number of batches                      ...      140
Average number of points per batch           ...       62
Average number of grid points per atom       ...     1249
UseSFitting                                  ... on

GRIDX 3
-------
General Integration Accuracy     IntAcc      ... 4.338
Radial Grid Type                 RadialGrid  ... OptM3 with GC (2021)
Angular Grid (max. ang.)         AngularGrid ... 3 (Lebedev-194)
Angular grid pruning method      GridPruning ... 4 (adaptive)
Weight generation scheme         WeightScheme... Becke
Basis function cutoff            BFCut       ... 1.0000e-11
Integration weight cutoff        WCut        ... 1.0000e-14
Angular grids for H and He will be reduced by one unit
Partially contracted basis set               ... on
Rotationally invariant grid construction     ... off

Total number of grid points                  ...    19267
Total number of batches                      ...      305
Average number of points per batch           ...       63
Average number of grid points per atom       ...     2752
UseSFitting                                  ... on

Time for X-Grid setup             =    0.076 sec

--------------
SCF ITERATIONS
--------------
ITER       Energy         Delta-E        Max-DP      RMS-DP      [F,P]     Damp
               ***  Starting incremental Fock matrix formation  ***
  0   -153.6681402592   0.000000000000 0.10514732  0.00255955  0.2956915 0.7000
  1   -153.7373203741  -0.069180114864 0.08939328  0.00191244  0.1098374 0.7000
                               ***Turning on DIIS***
  2   -153.7597274374  -0.022407063337 0.08310424  0.00247345  0.0438712 0.0000
  3   -153.8000197530  -0.040292315593 0.08559689  0.00159022  0.0560814 0.0000
  4   -153.8073585103  -0.007338757305 0.02163333  0.00046048  0.0219455 0.0000
                      *** Initiating the SOSCF procedure ***
                           *** Shutting down DIIS ***
                      *** Re-Reading the Fockian *** 
                      *** Removing any level shift *** 
ITER      Energy       Delta-E        Grad      Rot      Max-DP    RMS-DP
  5   -153.80829434  -0.0009358257  0.000693  0.000693  0.008131  0.000170
               *** Restarting incremental Fock matrix formation ***
  6   -153.80829838  -0.0000040487  0.000272  0.000858  0.005462  0.000114
  7   -153.80829927  -0.0000008832  0.000370  0.000492  0.002396  0.000050
  8   -153.80830032  -0.0000010486  0.000199  0.000298  0.002091  0.000041
  9   -153.80830048  -0.0000001591  0.000091  0.000082  0.000143  0.000004
 10   -153.80830067  -0.0000001943  0.000024  0.000064  0.000448  0.000009
 11   -153.80830068  -0.0000000096  0.000005  0.000015  0.000110  0.000002
                  ***Gradient check signals convergence***
              ***Rediagonalizing the Fockian in SOSCF/NRSCF***

               *****************************************************
               *                     SUCCESS                       *
               *           SCF CONVERGED AFTER  12 CYCLES          *
               *****************************************************

Old exchange energy                            =     -3.995551900 Eh
New exchange energy                            =     -3.995554022 Eh
Exchange energy change after final integration =     -0.000002122 Eh
Total energy after final integration           =   -153.808302803 Eh
Final COS-X integration done in                =     0.255 sec

----------------
TOTAL SCF ENERGY
----------------

Total Energy       :         -153.80830280 Eh           -4185.33670 eV

Components:
Nuclear Repulsion  :           69.80313948 Eh            1899.43999 eV
Electronic Energy  :         -223.61144228 Eh           -6084.77669 eV
One Electron Energy:         -346.36170146 Eh           -9424.98105 eV
Two Electron Energy:          122.75025918 Eh            3340.20436 eV
Max COSX asymmetry :            0.00000074 Eh               0.00002 eV

Virial components:
Potential Energy   :         -306.97108254 Eh           -8353.10782 eV
Kinetic Energy     :          153.16277974 Eh            4167.77112 eV
Virial Ratio       :            2.00421462


DFT components:
N(Alpha)           :       12.000001930242 electrons
N(Beta)            :       12.000001930242 electrons
N(Total)           :       24.000003860483 electrons
E(X)               :      -15.892835673517 Eh       
E(C)               :       -0.943457935747 Eh       
E(XC)              :      -16.836293609265 Eh       
DFET-embed. en.    :        0.000000000000 Eh       

---------------
SCF CONVERGENCE
---------------

  Last Energy change         ...   -1.5876e-09  Tolerance :   1.0000e-08
  Last MAX-Density change    ...    1.5543e-15  Tolerance :   1.0000e-07
  Last RMS-Density change    ...    2.3953e-17  Tolerance :   5.0000e-09
  Last Orbital Gradient      ...    1.3407e-06  Tolerance :   1.0000e-05
  Last Orbital Rotation      ...    1.5208e-06  Tolerance :   1.0000e-05

             **** THE GBW FILE WAS UPDATED (acetaldehyde.gbw) ****
             **** DENSITY acetaldehyde.scfp WAS UPDATED ****
             **** ENERGY FILE WAS UPDATED (acetaldehyde.en.tmp) ****
             **** THE GBW FILE WAS UPDATED (acetaldehyde.gbw) ****
             **** DENSITY acetaldehyde.scfp WAS UPDATED ****
----------------
ORBITAL ENERGIES
----------------

  NO   OCC          E(Eh)            E(eV) 
   0   2.0000     -19.128139      -520.5031 
   1   2.0000     -10.266269      -279.3594 
   2   2.0000     -10.182169      -277.0709 
   3   2.0000      -1.055721       -28.7276 
   4   2.0000      -0.755778       -20.5658 
   5   2.0000      -0.585865       -15.9422 
   6   2.0000      -0.483831       -13.1657 
   7   2.0000      -0.450726       -12.2649 
   8   2.0000      -0.443059       -12.0563 
   9   2.0000      -0.403975       -10.9927 
  10   2.0000      -0.370451       -10.0805 
  11   2.0000      -0.264083        -7.1861 
  12   0.0000      -0.039582        -1.0771 
  13   0.0000       0.044600         1.2136 
  14   0.0000       0.067469         1.8359 
  15   0.0000       0.110802         3.0151 
  16   0.0000       0.115722         3.1490 
  17   0.0000       0.143195         3.8965 
  18   0.0000       0.161906         4.4057 
  19   0.0000       0.206685         5.6242 
  20   0.0000       0.208977         5.6865 
  21   0.0000       0.245370         6.6769 
  22   0.0000       0.281859         7.6698 
  23   0.0000       0.316885         8.6229 
  24   0.0000       0.380125        10.3437 
  25   0.0000       0.389713        10.6046 
  26   0.0000       0.397819        10.8252 
  27   0.0000       0.425591        11.5809 
  28   0.0000       0.433247        11.7893 
  29   0.0000       0.466876        12.7043 
  30   0.0000       0.516480        14.0541 
  31   0.0000       0.530092        14.4245 
  32   0.0000       0.534546        14.5457 
  33   0.0000       0.585058        15.9202 
  34   0.0000       0.634045        17.2532 
  35   0.0000       0.750508        20.4224 
  36   0.0000       0.792996        21.5785 
  37   0.0000       0.860913        23.4266 
  38   0.0000       0.874541        23.7975 
  39   0.0000       0.915131        24.9020 
  40   0.0000       0.947567        25.7846 
  41   0.0000       1.045399        28.4468 
  42   0.0000       1.064309        28.9613 
  43   0.0000       1.124456        30.5980 
  44   0.0000       1.211948        32.9788 
  45   0.0000       1.368465        37.2378 
  46   0.0000       1.380715        37.5712 
  47   0.0000       1.475961        40.1630 
  48   0.0000       1.484283        40.3894 
  49   0.0000       1.504135        40.9296 
  50   0.0000       1.521965        41.4148 
  51   0.0000       1.532261        41.6949 
  52   0.0000       1.549488        42.1637 
  53   0.0000       1.635838        44.5134 
  54   0.0000       1.684385        45.8344 
  55   0.0000       1.813651        49.3519 
  56   0.0000       1.841628        50.1132 
  57   0.0000       1.908788        51.9408 
  58   0.0000       1.910932        51.9991 
  59   0.0000       1.969095        53.5818 
  60   0.0000       2.022705        55.0406 
  61   0.0000       2.096557        57.0502 
  62   0.0000       2.158280        58.7298 
  63   0.0000       2.219939        60.4076 
  64   0.0000       2.279575        62.0304 
  65   0.0000       2.325754        63.2870 
  66   0.0000       2.345456        63.8231 
  67   0.0000       2.365578        64.3706 
  68   0.0000       2.511685        68.3464 
  69   0.0000       2.516188        68.4689 
  70   0.0000       2.539767        69.1106 
  71   0.0000       2.677215        72.8507 
  72   0.0000       2.680224        72.9326 
  73   0.0000       2.738809        74.5268 
  74   0.0000       2.824449        76.8572 
  75   0.0000       2.828189        76.9589 
  76   0.0000       2.881656        78.4138 
  77   0.0000       2.902797        78.9891 
  78   0.0000       2.929030        79.7030 
  79   0.0000       2.991346        81.3987 
  80   0.0000       3.035886        82.6107 
  81   0.0000       3.066890        83.4543 
  82   0.0000       3.115565        84.7788 
  83   0.0000       3.140995        85.4708 
  84   0.0000       3.181893        86.5837 
  85   0.0000       3.287564        89.4592 
  86   0.0000       3.304429        89.9181 
  87   0.0000       3.393390        92.3388 
  88   0.0000       3.453040        93.9620 
  89   0.0000       3.507444        95.4424 
  90   0.0000       3.664478        99.7155 
  91   0.0000       3.762285       102.3770 
  92   0.0000       3.798309       103.3572 
  93   0.0000       3.856968       104.9534 
  94   0.0000       3.887626       105.7877 
  95   0.0000       3.958608       107.7192 
  96   0.0000       4.098331       111.5212 
  97   0.0000       4.259272       115.9007 
  98   0.0000       4.318010       117.4990 
  99   0.0000       4.428797       120.5137 
 100   0.0000       4.552076       123.8683 
 101   0.0000       4.655376       126.6792 
 102   0.0000       5.177794       140.8949 
 103   0.0000       5.182640       141.0268 
 104   0.0000       5.545447       150.8993 
 105   0.0000       5.650268       153.7516 
 106   0.0000       6.076663       165.3544 
 107   0.0000       6.310545       171.7187 
 108   0.0000       6.328500       172.2072 
 109   0.0000       6.364937       173.1987 
 110   0.0000       6.431822       175.0188 
 111   0.0000       6.774266       184.3372 
 112   0.0000       6.894716       187.6148 
 113   0.0000       7.035384       191.4425 
 114   0.0000      22.255989       605.6162 
 115   0.0000      22.666917       616.7982 
 116   0.0000      43.645742      1187.6610 

                    ********************************
                    * MULLIKEN POPULATION ANALYSIS *
                    ********************************

-----------------------
MULLIKEN ATOMIC CHARGES
-----------------------
   0 H :    0.067739
   1 C :    0.113699
   2 C :   -0.273674
   3 O :   -0.266393
   4 H :    0.099421
   5 H :    0.129604
   6 H :    0.129603
Sum of atomic charges:    0.0000000

--------------------------------
MULLIKEN REDUCED ORBITAL CHARGES
--------------------------------
  0 H s       :     0.912524  s :     0.912524
      pz      :     0.002437  p :     0.019737
      px      :     0.002998
      py      :     0.014302
  1 C s       :     3.244090  s :     3.244090
      pz      :     0.703969  p :     2.461506
      px      :     0.831654
      py      :     0.925883
      dz2     :     0.006648  d :     0.165716
      dxz     :     0.033308
      dyz     :     0.009107
      dx2y2   :     0.079497
      dxy     :     0.037155
      f0      :     0.001892  f :     0.014989
      f+1     :     0.001102
      f-1     :     0.000683
      f+2     :     0.000357
      f-2     :     0.002582
      f+3     :     0.005136
      f-3     :     0.003236
  2 C s       :     3.216003  s :     3.216003
      pz      :     1.058273  p :     3.019595
      px      :     0.932884
      py      :     1.028438
      dz2     :     0.004838  d :     0.034782
      dxz     :     0.006784
      dyz     :     0.004115
      dx2y2   :     0.006956
      dxy     :     0.012090
      f0      :     0.000188  f :     0.003293
      f+1     :     0.000067
      f-1     :     0.001147
      f+2     :     0.000154
      f-2     :     0.000060
      f+3     :     0.000881
      f-3     :     0.000795
  3 O s       :     3.816191  s :     3.816191
      pz      :     1.284612  p :     4.418460
      px      :     1.496708
      py      :     1.637140
      dz2     :     0.002364  d :     0.029973
      dxz     :     0.007893
      dyz     :     0.003856
      dx2y2   :     0.008373
      dxy     :     0.007487
      f0      :     0.000158  f :     0.001769
      f+1     :     0.000082
      f-1     :     0.000051
      f+2     :     0.000058
      f-2     :     0.000439
      f+3     :     0.000567
      f-3     :     0.000414
  4 H s       :     0.878931  s :     0.878931
      pz      :     0.004328  p :     0.021648
      px      :     0.009058
      py      :     0.008262
  5 H s       :     0.848561  s :     0.848561
      pz      :     0.009740  p :     0.021835
      px      :     0.004529
      py      :     0.007565
  6 H s       :     0.848563  s :     0.848563
      pz      :     0.009739  p :     0.021835
      px      :     0.004530
      py      :     0.007566


                     *******************************
                     * LOEWDIN POPULATION ANALYSIS *
                     *******************************

----------------------
LOEWDIN ATOMIC CHARGES
----------------------
   0 H :    0.102614
   1 C :   -0.317102
   2 C :   -0.296430
   3 O :    0.115128
   4 H :    0.120264
   5 H :    0.137764
   6 H :    0.137763

-------------------------------
LOEWDIN REDUCED ORBITAL CHARGES
-------------------------------
  0 H s       :     0.842059  s :     0.842059
      pz      :     0.007210  p :     0.055327
      px      :     0.008650
      py      :     0.039467
  1 C s       :     2.847901  s :     2.847901
      pz      :     0.690266  p :     2.723834
      px      :     1.026789
      py      :     1.006779
      dz2     :     0.039747  d :     0.651139
      dxz     :     0.105423
      dyz     :     0.020665
      dx2y2   :     0.312624
      dxy     :     0.172680
      f0      :     0.006841  f :     0.094228
      f+1     :     0.007923
      f-1     :     0.005079
      f+2     :     0.002226
      f-2     :     0.015697
      f+3     :     0.038141
      f-3     :     0.018322
  2 C s       :     2.846167  s :     2.846167
      pz      :     1.076567  p :     3.204056
      px      :     1.055629
      py      :     1.071860
      dz2     :     0.037621  d :     0.222141
      dxz     :     0.027117
      dyz     :     0.041546
      dx2y2   :     0.040974
      dxy     :     0.074884
      f0      :     0.001341  f :     0.024065
      f+1     :     0.003441
      f-1     :     0.003965
      f+2     :     0.004108
      f-2     :     0.001053
      f+3     :     0.005785
      f-3     :     0.004373
  3 O s       :     3.411148  s :     3.411148
      pz      :     1.217815  p :     4.396211
      px      :     1.558151
      py      :     1.620244
      dz2     :     0.007938  d :     0.071189
      dxz     :     0.008653
      dyz     :     0.004245
      dx2y2   :     0.025581
      dxy     :     0.024773
      f0      :     0.000360  f :     0.006324
      f+1     :     0.000672
      f-1     :     0.000418
      f+2     :     0.000092
      f-2     :     0.000652
      f+3     :     0.002262
      f-3     :     0.001868
  4 H s       :     0.818509  s :     0.818509
      pz      :     0.013388  p :     0.061228
      px      :     0.023068
      py      :     0.024772
  5 H s       :     0.800418  s :     0.800418
      pz      :     0.027811  p :     0.061818
      px      :     0.012803
      py      :     0.021204
  6 H s       :     0.800419  s :     0.800419
      pz      :     0.027811  p :     0.061818
      px      :     0.012803
      py      :     0.021204


                      *****************************
                      * MAYER POPULATION ANALYSIS *
                      *****************************

  NA   - Mulliken gross atomic population
  ZA   - Total nuclear charge
  QA   - Mulliken gross atomic charge
  VA   - Mayer's total valence
  BVA  - Mayer's bonded valence
  FA   - Mayer's free valence

  ATOM       NA         ZA         QA         VA         BVA        FA
  0 H      0.9323     1.0000     0.0677     0.9559     0.9559    -0.0000
  1 C      5.8863     6.0000     0.1137     4.0169     4.0169    -0.0000
  2 C      6.2737     6.0000    -0.2737     3.6828     3.6828     0.0000
  3 O      8.2664     8.0000    -0.2664     2.1434     2.1434    -0.0000
  4 H      0.9006     1.0000     0.0994     0.9868     0.9868     0.0000
  5 H      0.8704     1.0000     0.1296     0.9842     0.9842     0.0000
  6 H      0.8704     1.0000     0.1296     0.9842     0.9842     0.0000

  Mayer bond orders larger than 0.100000
B(  0-H ,  1-C ) :   0.9589 B(  1-C ,  2-C ) :   0.9217 B(  1-C ,  3-O ) :   2.1081 
B(  2-C ,  4-H ) :   0.9610 B(  2-C ,  5-H ) :   0.9498 B(  2-C ,  6-H ) :   0.9498 


-------
TIMINGS
-------

Total SCF time: 0 days 0 hours 0 min 2 sec 

Total time                  ....       2.734 sec
Sum of individual times     ....       2.644 sec  ( 96.7%)

Fock matrix formation       ....       2.384 sec  ( 87.2%)
  Split-RI-J                ....       0.265 sec  ( 11.1% of F)
  Chain of spheres X        ....       1.641 sec  ( 68.8% of F)
  XC integration            ....       0.423 sec  ( 17.7% of F)
    Basis function eval.    ....       0.119 sec  ( 28.1% of XC)
    Density eval.           ....       0.068 sec  ( 16.2% of XC)
    XC-Functional eval.     ....       0.036 sec  (  8.5% of XC)
    XC-Potential eval.      ....       0.123 sec  ( 29.2% of XC)
Diagonalization             ....       0.016 sec  (  0.6%)
Density matrix formation    ....       0.002 sec  (  0.1%)
Population analysis         ....       0.003 sec  (  0.1%)
Initial guess               ....       0.018 sec  (  0.6%)
Orbital Transformation      ....       0.000 sec  (  0.0%)
Orbital Orthonormalization  ....       0.000 sec  (  0.0%)
DIIS solution               ....       0.013 sec  (  0.5%)
SOSCF solution              ....       0.015 sec  (  0.5%)
Grid generation             ....       0.194 sec  (  7.1%)

Maximum memory used throughout the entire SCF-calculation: 61.0 MB


-------------------------------------------------------------------------------
                          DFT DISPERSION CORRECTION                            
                                                                               
                              DFTD3 V3.1  Rev 1                                
                          USING Becke-Johnson damping                          
-------------------------------------------------------------------------------
The B3LYP functional is recognized
Active option DFTDOPT                   ...         4   

molecular C6(AA) [au] = 395.047279 


            DFT-D V3
 parameters
 s6 scaling factor         :     1.0000 
 a1 scaling factor         :     0.3981 
 s8 scaling factor         :     1.9889 
 a2 scaling factor         :     4.4211 
 ad hoc parameters k1-k3   :    16.0000     1.3333    -4.0000 

 Edisp/kcal,au: -3.379039111609  -0.005384841012 
 E6   /kcal   :  -1.669133559 
 E8   /kcal   :  -1.709905552 
 % E8         :  50.603307498 

-------------------------   ----------------
Dispersion correction           -0.005384841
-------------------------   ----------------


-------------------------   --------------------
FINAL SINGLE POINT ENERGY      -153.813687644210
-------------------------   --------------------



           ************************************************************
           *        Program running with 8 parallel MPI-processes     *
           *              working on a common directory               *
           ************************************************************
------------------------------------------------------------------------------
                         ORCA SCF GRADIENT CALCULATION
------------------------------------------------------------------------------

 ... reading COSX grid (gridx3)
Gradient of the Kohn-Sham DFT energy:
Kohn-Sham wavefunction type      ... RKS
Hartree-Fock exchange scaling    ...    0.200
Number of operators              ...    1
Number of atoms                  ...    7
Basis set dimensions             ...  117
Integral neglect threshold       ... 2.5e-11
Integral primitive cutoff        ... 2.5e-12
SHARK Integral package           ... ON

Nuc. rep. gradient       (SHARK) ... done (  0.0 sec)
HCore & Overlap gradient (SHARK) ... done (  0.0 sec)
RI-J gradient            (SHARK) ... done (  0.1 sec)
COSX-gradient                    ... done (  0.3 sec)
Exchange-correlation gradient    ... done
Dispersion correction            ... done

------------------
CARTESIAN GRADIENT
------------------

   1   H   :    0.000004961   -0.000170865    0.000002376
   2   C   :    0.000123687   -0.000139921   -0.000007235
   3   C   :    0.000193056    0.000012839    0.000001756
   4   O   :   -0.000372824    0.000304617    0.000002522
   5   H   :    0.000026864   -0.000108997    0.000000193
   6   H   :    0.000017863    0.000119869   -0.000134301
   7   H   :    0.000018791    0.000120444    0.000134712

Difference to translation invariance:
           :    0.0000123981    0.0001379874    0.0000000240

Difference to rotation invariance:
           :    0.0000000013   -0.0000000256    0.0000598738

Norm of the cartesian gradient     ...    0.0006416552
RMS gradient                       ...    0.0001400206
MAX gradient                       ...    0.0003728238

-------
TIMINGS
-------

Total SCF gradient time            ...        0.676 sec

One electron gradient       ....       0.007 sec  (  1.0%)
RI-J Coulomb gradient       ....       0.093 sec  ( 13.8%)
COSX gradient               ....       0.305 sec  ( 45.1%)
XC gradient                 ....       0.110 sec  ( 16.2%)

Maximum memory used throughout the entire SCFGRAD-calculation: 35.8 MB
------------------------------------------------------------------------------
                         ORCA GEOMETRY RELAXATION STEP
------------------------------------------------------------------------------

Reading the OPT-File                    .... done
Getting information on internals        .... done
Copying old internal coords+grads       .... done
Making the new internal coordinates     .... (new redundants).... done
Validating the new internal coordinates .... (new redundants).... done
Calculating the B-matrix                .... done
Calculating the G,G- and P matrices     .... done
Transforming gradient to internals      .... done
Projecting the internal gradient        .... done
Number of atoms                         ....   7
Number of internal coordinates          ....  21
Current Energy                          ....  -153.813687644 Eh
Current gradient norm                   ....     0.000641655 Eh/bohr
Maximum allowed component of the step   ....  0.300
Current trust radius                    ....  0.300
Evaluating the initial hessian          ....  (Almloef) done
Projecting the Hessian                  .... done
Forming the augmented Hessian           .... done
Diagonalizing the augmented Hessian     .... done
Last element of RFO vector              ....  0.999999160
Lowest eigenvalues of augmented Hessian:
 -0.000000706  0.012182017  0.012182018  0.132247344  0.139841620
Length of the computed step             ....  0.001295875
The final length of the internal step   ....  0.001295875
Converting the step to cartesian space:
 Initial RMS(Int)=    0.0002827830
Transforming coordinates:
 Iter   0:  RMS(Cart)=    0.0003324898 RMS(Int)=    1.3710751228
 Iter   1:  RMS(Cart)=    0.0000000328 RMS(Int)=    0.0000000298
done
Storing new coordinates                 .... done

                                .--------------------.
          ----------------------|Geometry convergence|-------------------------
          Item                value                   Tolerance       Converged
          ---------------------------------------------------------------------
          RMS gradient        0.0001382967            0.0001000000      NO
          MAX gradient        0.0004637919            0.0003000000      NO
          RMS step            0.0002827830            0.0020000000      YES
          MAX step            0.0006315454            0.0040000000      YES
          ........................................................
          Max(Bonds)      0.0003      Max(Angles)    0.01
          Max(Dihed)        0.01      Max(Improp)    0.00
          ---------------------------------------------------------------------

       The step convergence is overachieved with 
       reasonable convergence on the gradient
       Convergence will therefore be signaled now


                    ***********************HURRAY********************
                    ***        THE OPTIMIZATION HAS CONVERGED     ***
                    *************************************************


    ---------------------------------------------------------------------------
                         Redundant Internal Coordinates

                          --- Optimized Parameters ---  
                            (Angstroem and degrees)

        Definition                    OldVal   dE/dq     Step     FinalVal
    ----------------------------------------------------------------------------
     1. B(C   1,H   0)                1.1105 -0.000196  0.0003    1.1108   
     2. B(C   2,C   1)                1.5078 -0.000256  0.0003    1.5081   
     3. B(O   3,C   1)                1.2031 -0.000464  0.0002    1.2033   
     4. B(H   4,C   2)                1.0895 -0.000106  0.0002    1.0896   
     5. B(H   5,C   2)                1.0921 -0.000171  0.0003    1.0923   
     6. B(H   6,C   2)                1.0921 -0.000172  0.0003    1.0923   
     7. A(C   2,C   1,O   3)          123.59 -0.000022    0.00    123.59   
     8. A(H   0,C   1,O   3)          120.13 -0.000025    0.00    120.14   
     9. A(H   0,C   1,C   2)          116.28  0.000046   -0.01    116.27   
    10. A(H   4,C   2,H   5)          109.49 -0.000039    0.01    109.50   
    11. A(C   1,C   2,H   5)          109.23 -0.000000   -0.00    109.23   
    12. A(C   1,C   2,H   6)          109.23 -0.000002    0.00    109.23   
    13. A(H   5,C   2,H   6)          107.24 -0.000003    0.00    107.24   
    14. A(H   4,C   2,H   6)          109.49 -0.000038    0.01    109.50   
    15. A(C   1,C   2,H   4)          112.03  0.000078   -0.01    112.02   
    16. D(H   4,C   2,C   1,O   3)    180.00 -0.000001    0.01    180.01   
    17. D(H   5,C   2,C   1,H   0)   -121.49 -0.000001   -0.01   -121.50   
    18. D(H   5,C   2,C   1,O   3)     58.51 -0.000004    0.01     58.51   
    19. D(H   6,C   2,C   1,H   0)    121.50  0.000004   -0.01    121.49   
    20. D(H   6,C   2,C   1,O   3)    -58.51  0.000001    0.01    -58.50   
    21. D(H   4,C   2,C   1,H   0)      0.00  0.000002   -0.01     -0.00   
    ----------------------------------------------------------------------------
                 *******************************************************
                 *** FINAL ENERGY EVALUATION AT THE STATIONARY POINT ***
                 ***               (AFTER    1 CYCLES)               ***
                 *******************************************************
---------------------------------
CARTESIAN COORDINATES (ANGSTROEM)
---------------------------------
  H      0.337904    1.515355   -0.000012
  C      0.238749    0.409018    0.000056
  C     -1.167784   -0.135043    0.000013
  O      1.221281   -0.285618   -0.000035
  H     -1.913168    0.659733    0.000001
  H     -1.309059   -0.767350    0.879452
  H     -1.309016   -0.767337   -0.879443

----------------------------
CARTESIAN COORDINATES (A.U.)
----------------------------
  NO LB      ZA    FRAG     MASS         X           Y           Z
   0 H     1.0000    0     1.008    0.638547    2.863606   -0.000023
   1 C     6.0000    0    12.011    0.451171    0.772931    0.000105
   2 C     6.0000    0    12.011   -2.206791   -0.255194    0.000024
   3 O     8.0000    0    15.999    2.307887   -0.539739   -0.000067
   4 H     1.0000    0     1.008   -3.615363    1.246714    0.000002
   5 H     1.0000    0     1.008   -2.473763   -1.450082    1.661924
   6 H     1.0000    0     1.008   -2.473682   -1.450058   -1.661907

--------------------------------
INTERNAL COORDINATES (ANGSTROEM)
--------------------------------
 H      0   0   0     0.000000000000     0.00000000     0.00000000
 C      1   0   0     1.110771775964     0.00000000     0.00000000
 C      2   1   0     1.508090460119   116.26836867     0.00000000
 O      2   1   3     1.203281842070   120.13832533   179.98941509
 H      3   2   1     1.089616906159   112.01627238     0.00000000
 H      3   2   1     1.092330514226   109.23432219   238.50320696
 H      3   2   1     1.092330734756   109.23460494   121.48764086

---------------------------
INTERNAL COORDINATES (A.U.)
---------------------------
 H      0   0   0     0.000000000000     0.00000000     0.00000000
 C      1   0   0     2.099054453861     0.00000000     0.00000000
 C      2   1   0     2.849877954803   116.26836867     0.00000000
 O      2   1   3     2.273873143432   120.13832533   179.98941509
 H      3   2   1     2.059077543531   112.01627238     0.00000000
 H      3   2   1     2.064205519613   109.23432219   238.50320696
 H      3   2   1     2.064205936354   109.23460494   121.48764086

---------------------
BASIS SET INFORMATION
---------------------
There are 3 groups of distinct atoms

 Group   1 Type H   : 5s1p contracted to 3s1p pattern {311/1}
 Group   2 Type C   : 11s6p2d1f contracted to 5s3p2d1f pattern {62111/411/11/1}
 Group   3 Type O   : 11s6p2d1f contracted to 5s3p2d1f pattern {62111/411/11/1}

Atom   0H    basis set group =>   1
Atom   1C    basis set group =>   2
Atom   2C    basis set group =>   2
Atom   3O    basis set group =>   3
Atom   4H    basis set group =>   1
Atom   5H    basis set group =>   1
Atom   6H    basis set group =>   1
---------------------------------
AUXILIARY/J BASIS SET INFORMATION
---------------------------------
There are 3 groups of distinct atoms

 Group   1 Type H   : 5s2p1d contracted to 3s1p1d pattern {311/2/1}
 Group   2 Type C   : 12s5p4d2f1g contracted to 6s4p3d1f1g pattern {711111/2111/211/2/1}
 Group   3 Type O   : 12s5p4d2f1g contracted to 6s4p3d1f1g pattern {711111/2111/211/2/1}

Atom   0H    basis set group =>   1
Atom   1C    basis set group =>   2
Atom   2C    basis set group =>   2
Atom   3O    basis set group =>   3
Atom   4H    basis set group =>   1
Atom   5H    basis set group =>   1
Atom   6H    basis set group =>   1


           ************************************************************
           *        Program running with 8 parallel MPI-processes     *
           *              working on a common directory               *
           ************************************************************
------------------------------------------------------------------------------
                           ORCA GTO INTEGRAL CALCULATION
                           -- RI-GTO INTEGRALS CHOSEN --
------------------------------------------------------------------------------
------------------------------------------------------------------------------
                   ___                                                        
                  /   \      - P O W E R E D   B Y -                         
                 /     \                                                     
                 |  |  |   _    _      __       _____    __    __             
                 |  |  |  | |  | |    /  \     |  _  \  |  |  /  |          
                  \  \/   | |  | |   /    \    | | | |  |  | /  /          
                 / \  \   | |__| |  /  /\  \   | |_| |  |  |/  /          
                |  |  |   |  __  | /  /__\  \  |    /   |      \           
                |  |  |   | |  | | |   __   |  |    \   |  |\   \          
                \     /   | |  | | |  |  |  |  | |\  \  |  | \   \       
                 \___/    |_|  |_| |__|  |__|  |_| \__\ |__|  \__/        
                                                                              
                      - O R C A' S   B I G   F R I E N D -                    
                                      &                                       
                       - I N T E G R A L  F E E D E R -                       
                                                                              
 v1 FN, 2020, v2 2021                                                         
------------------------------------------------------------------------------


Reading SHARK input file acetaldehyde.SHARKINP.tmp ... ok
----------------------
SHARK INTEGRAL PACKAGE
----------------------

Number of atoms                             ...      7
Number of basis functions                   ...    117
Number of shells                            ...     49
Maximum angular momentum                    ...      3
Integral batch strategy                     ... SHARK/LIBINT Hybrid
RI-J (if used) integral strategy            ... SPLIT-RIJ (Revised 2003 algorithm where possible)
Printlevel                                  ...      1
Contraction scheme used                     ... SEGMENTED contraction
Coulomb Range Separation                    ... NOT USED
Exchange Range Separation                   ... NOT USED
Finite Nucleus Model                        ... NOT USED
Auxiliary Coulomb fitting basis             ... AVAILABLE
   # of basis functions in Aux-J            ...    191
   # of shells in Aux-J                     ...     65
   Maximum angular momentum in Aux-J        ...      4
Auxiliary J/K fitting basis                 ... NOT available
Auxiliary Correlation fitting basis         ... NOT available
Auxiliary 'external' fitting basis          ... NOT available
Integral threshold                          ...     2.500000e-11
Primitive cut-off                           ...     2.500000e-12
Primitive pair pre-selection threshold      ...     2.500000e-12

Calculating pre-screening integrals         ... done (  0.0 sec) Dimension = 49
Organizing shell pair data                  ... done (  0.0 sec)
Shell pair information
Total number of shell pairs                 ...      1225
Shell pairs after pre-screening             ...      1211
Total number of primitive shell pairs       ...      3648
Primitive shell pairs kept                  ...      3073
          la=0 lb=0:    368 shell pairs
          la=1 lb=0:    349 shell pairs
          la=1 lb=1:     91 shell pairs
          la=2 lb=0:    160 shell pairs
          la=2 lb=1:     78 shell pairs
          la=2 lb=2:     21 shell pairs
          la=3 lb=0:     81 shell pairs
          la=3 lb=1:     39 shell pairs
          la=3 lb=2:     18 shell pairs
          la=3 lb=3:      6 shell pairs

Calculating one electron integrals          ... done (  0.0 sec)
Calculating RI/J V-Matrix + Cholesky decomp.... done (  0.0 sec)
Calculating Nuclear repulsion               ... done (  0.0 sec) ENN=     69.788689633648 Eh

SHARK setup successfully completed in   0.1 seconds

Maximum memory used throughout the entire GTOINT-calculation: 13.7 MB


           ************************************************************
           *        Program running with 8 parallel MPI-processes     *
           *              working on a common directory               *
           ************************************************************
-------------------------------------------------------------------------------
                                 ORCA SCF
-------------------------------------------------------------------------------

------------
SCF SETTINGS
------------
Hamiltonian:
 Density Functional     Method          .... DFT(GTOs)
 Exchange Functional    Exchange        .... B88
   X-Alpha parameter    XAlpha          ....  0.666667
   Becke's b parameter  XBeta           ....  0.004200
 Correlation Functional Correlation     .... LYP
 LDA part of GGA corr.  LDAOpt          .... VWN-5
 Gradients option       PostSCFGGA      .... off
 Hybrid DFT is turned on
   Fraction HF Exchange ScalHFX         ....  0.200000
   Scaling of DF-GGA-X  ScalDFX         ....  0.720000
   Scaling of DF-GGA-C  ScalDFC         ....  0.810000
   Scaling of DF-LDA-C  ScalLDAC        ....  1.000000
   Perturbative correction              ....  0.000000
   Density functional embedding theory  .... OFF
   NL short-range parameter             ....  4.800000
 RI-approximation to the Coulomb term is turned on
   Number of AuxJ basis functions       .... 191
   RIJ-COSX (HFX calculated with COS-X)).... on


General Settings:
 Integral files         IntName         .... acetaldehyde
 Hartree-Fock type      HFTyp           .... RHF
 Total Charge           Charge          ....    0
 Multiplicity           Mult            ....    1
 Number of Electrons    NEL             ....   24
 Basis Dimension        Dim             ....  117
 Nuclear Repulsion      ENuc            ....     69.7886896336 Eh

Convergence Acceleration:
 DIIS                   CNVDIIS         .... on
   Start iteration      DIISMaxIt       ....    12
   Startup error        DIISStart       ....  0.200000
   # of expansion vecs  DIISMaxEq       ....     5
   Bias factor          DIISBfac        ....   1.050
   Max. coefficient     DIISMaxC        ....  10.000
 Trust-Rad. Augm. Hess. CNVTRAH         .... auto
   Auto Start mean grad. ratio tolernc. ....  1.125000
   Auto Start start iteration           ....     1
   Auto Start num. interpolation iter.  ....    10
   Max. Number of Micro iterations      ....    16
   Max. Number of Macro iterations      .... Maxiter - #DIIS iter
   Number of Davidson start vectors     ....     2
   Converg. threshold I  (grad. norm)   ....   1.000e-05
   Converg. threshold II (energy diff.) ....   1.000e-08
   Grad. Scal. Fac. for Micro threshold ....   0.100
   Minimum threshold for Micro iter.    ....   0.010
   NR start threshold (gradient norm)   ....   0.001
   Initial trust radius                 ....   0.400
   Minimum AH scaling param. (alpha)    ....   1.000
   Maximum AH scaling param. (alpha)    .... 1000.000
   Orbital update algorithm             .... Taylor
   White noise on init. David. guess    .... on
   Maximum white noise                  ....   0.010
   Quad. conv. algorithm                .... NR
 SOSCF                  CNVSOSCF        .... on
   Start iteration      SOSCFMaxIt      ....   150
   Startup grad/error   SOSCFStart      ....  0.003300
 Level Shifting         CNVShift        .... on
   Level shift para.    LevelShift      ....    0.2500
   Turn off err/grad.   ShiftErr        ....    0.0010
 Zerner damping         CNVZerner       .... off
 Static damping         CNVDamp         .... on
   Fraction old density DampFac         ....    0.7000
   Max. Damping (<1)    DampMax         ....    0.9800
   Min. Damping (>=0)   DampMin         ....    0.0000
   Turn off err/grad.   DampErr         ....    0.1000
 Fernandez-Rico         CNVRico         .... off

SCF Procedure:
 Maximum # iterations   MaxIter         ....   125
 SCF integral mode      SCFMode         .... Direct
   Integral package                     .... SHARK and LIBINT hybrid scheme
 Reset frequency        DirectResetFreq ....    20
 Integral Threshold     Thresh          ....  2.500e-11 Eh
 Primitive CutOff       TCut            ....  2.500e-12 Eh

Convergence Tolerance:
 Convergence Check Mode ConvCheckMode   .... Total+1el-Energy
 Convergence forced     ConvForced      .... 0
 Energy Change          TolE            ....  1.000e-08 Eh
 1-El. energy change                    ....  1.000e-05 Eh
 Orbital Gradient       TolG            ....  1.000e-05
 Orbital Rotation angle TolX            ....  1.000e-05
 DIIS Error             TolErr          ....  5.000e-07


Diagonalization of the overlap matrix:
Smallest eigenvalue                        ... 5.614e-04
Time for diagonalization                   ...    0.002 sec
Threshold for overlap eigenvalues          ... 1.000e-08
Number of eigenvalues below threshold      ... 0
Time for construction of square roots      ...    0.001 sec
Total time needed                          ...    0.003 sec

---------------------
INITIAL GUESS: MOREAD
---------------------
Guess MOs are being read from file: acetaldehyde.gbw
Input Geometry matches current geometry (good)
Input basis set matches current basis set (good)
MOs were renormalized
MOs were reorthogonalized (Cholesky)
                      ------------------
                      INITIAL GUESS DONE (   0.0 sec)
                      ------------------
-------------------
DFT GRID GENERATION
-------------------

General Integration Accuracy     IntAcc      ... 4.388
Radial Grid Type                 RadialGrid  ... OptM3 with GC (2021)
Angular Grid (max. ang.)         AngularGrid ... 4 (Lebedev-302)
Angular grid pruning method      GridPruning ... 4 (adaptive)
Weight generation scheme         WeightScheme... Becke
Basis function cutoff            BFCut       ... 1.0000e-11
Integration weight cutoff        WCut        ... 1.0000e-14
Angular grids for H and He will be reduced by one unit
Partially contracted basis set               ... off
Rotationally invariant grid construction     ... off

Total number of grid points                  ...    31339
Total number of batches                      ...      494
Average number of points per batch           ...       63
Average number of grid points per atom       ...     4477
Time for grid setup =    0.104 sec

--------------------
COSX GRID GENERATION
--------------------

GRIDX 1
-------
General Integration Accuracy     IntAcc      ... 3.816
Radial Grid Type                 RadialGrid  ... OptM3 with GC (2021)
Angular Grid (max. ang.)         AngularGrid ... 1 (Lebedev-50)
Angular grid pruning method      GridPruning ... 4 (adaptive)
Weight generation scheme         WeightScheme... Becke
Basis function cutoff            BFCut       ... 1.0000e-11
Integration weight cutoff        WCut        ... 1.0000e-14
Angular grids for H and He will be reduced by one unit
Partially contracted basis set               ... on
Rotationally invariant grid construction     ... off

Total number of grid points                  ...     4029
Total number of batches                      ...       67
Average number of points per batch           ...       60
Average number of grid points per atom       ...      576
UseSFitting                                  ... on

GRIDX 2
-------
General Integration Accuracy     IntAcc      ... 4.020
Radial Grid Type                 RadialGrid  ... OptM3 with GC (2021)
Angular Grid (max. ang.)         AngularGrid ... 2 (Lebedev-110)
Angular grid pruning method      GridPruning ... 4 (adaptive)
Weight generation scheme         WeightScheme... Becke
Basis function cutoff            BFCut       ... 1.0000e-11
Integration weight cutoff        WCut        ... 1.0000e-14
Angular grids for H and He will be reduced by one unit
Partially contracted basis set               ... on
Rotationally invariant grid construction     ... off

Total number of grid points                  ...     8740
Total number of batches                      ...      140
Average number of points per batch           ...       62
Average number of grid points per atom       ...     1249
UseSFitting                                  ... on

GRIDX 3
-------
General Integration Accuracy     IntAcc      ... 4.338
Radial Grid Type                 RadialGrid  ... OptM3 with GC (2021)
Angular Grid (max. ang.)         AngularGrid ... 3 (Lebedev-194)
Angular grid pruning method      GridPruning ... 4 (adaptive)
Weight generation scheme         WeightScheme... Becke
Basis function cutoff            BFCut       ... 1.0000e-11
Integration weight cutoff        WCut        ... 1.0000e-14
Angular grids for H and He will be reduced by one unit
Partially contracted basis set               ... on
Rotationally invariant grid construction     ... off

Total number of grid points                  ...    19267
Total number of batches                      ...      305
Average number of points per batch           ...       63
Average number of grid points per atom       ...     2752
UseSFitting                                  ... on

Time for X-Grid setup             =    0.074 sec

--------------
SCF ITERATIONS
--------------
ITER       Energy         Delta-E        Max-DP      RMS-DP      [F,P]     Damp
               ***  Starting incremental Fock matrix formation  ***
                      *** Initiating the SOSCF procedure ***
                      *** Re-Reading the Fockian *** 
                      *** Removing any level shift *** 
ITER      Energy       Delta-E        Grad      Rot      Max-DP    RMS-DP
  0   -153.80830144 -153.8083014393  0.000049  0.000049  0.000117  0.000004
               *** Restarting incremental Fock matrix formation ***
  1   -153.80830152  -0.0000000758  0.000020  0.000046  0.000096  0.000002
  2   -153.80830151   0.0000000031  0.000032  0.000038  0.000029  0.000001
  3   -153.80830152  -0.0000000106  0.000011  0.000019  0.000071  0.000001
  4   -153.80830152   0.0000000005  0.000010  0.000009  0.000039  0.000001
                 **** Energy Check signals convergence ****
              ***Rediagonalizing the Fockian in SOSCF/NRSCF***

               *****************************************************
               *                     SUCCESS                       *
               *           SCF CONVERGED AFTER   5 CYCLES          *
               *****************************************************

Old exchange energy                            =     -3.995402964 Eh
New exchange energy                            =     -3.995405087 Eh
Exchange energy change after final integration =     -0.000002123 Eh
Total energy after final integration           =   -153.808303647 Eh
Final COS-X integration done in                =     0.254 sec

----------------
TOTAL SCF ENERGY
----------------

Total Energy       :         -153.80830365 Eh           -4185.33672 eV

Components:
Nuclear Repulsion  :           69.78868963 Eh            1899.04679 eV
Electronic Energy  :         -223.59699328 Eh           -6084.38351 eV
One Electron Energy:         -346.33360447 Eh           -9424.21650 eV
Two Electron Energy:          122.73661119 Eh            3339.83298 eV
Max COSX asymmetry :            0.00000074 Eh               0.00002 eV

Virial components:
Potential Energy   :         -306.96833355 Eh           -8353.03302 eV
Kinetic Energy     :          153.16002991 Eh            4167.69630 eV
Virial Ratio       :            2.00423266


DFT components:
N(Alpha)           :       12.000001940244 electrons
N(Beta)            :       12.000001940244 electrons
N(Total)           :       24.000003880489 electrons
E(X)               :      -15.892315099707 Eh       
E(C)               :       -0.943423419073 Eh       
E(XC)              :      -16.835738518780 Eh       
DFET-embed. en.    :        0.000000000000 Eh       

---------------
SCF CONVERGENCE
---------------

  Last Energy change         ...   -1.2772e-09  Tolerance :   1.0000e-08
  Last MAX-Density change    ...    7.7716e-16  Tolerance :   1.0000e-07
  Last RMS-Density change    ...    2.3433e-17  Tolerance :   5.0000e-09
  Last Orbital Gradient      ...    3.0362e-07  Tolerance :   1.0000e-05
  Last Orbital Rotation      ...    3.7238e-07  Tolerance :   1.0000e-05

             **** THE GBW FILE WAS UPDATED (acetaldehyde.gbw) ****
             **** DENSITY acetaldehyde.scfp WAS UPDATED ****
             **** ENERGY FILE WAS UPDATED (acetaldehyde.en.tmp) ****
             **** THE GBW FILE WAS UPDATED (acetaldehyde.gbw) ****
             **** DENSITY acetaldehyde.scfp WAS UPDATED ****
----------------
ORBITAL ENERGIES
----------------

  NO   OCC          E(Eh)            E(eV) 
   0   2.0000     -19.128184      -520.5043 
   1   2.0000     -10.266365      -279.3620 
   2   2.0000     -10.182274      -277.0738 
   3   2.0000      -1.055612       -28.7247 
   4   2.0000      -0.755694       -20.5635 
   5   2.0000      -0.585817       -15.9409 
   6   2.0000      -0.483763       -13.1639 
   7   2.0000      -0.450647       -12.2627 
   8   2.0000      -0.443018       -12.0551 
   9   2.0000      -0.403964       -10.9924 
  10   2.0000      -0.370419       -10.0796 
  11   2.0000      -0.264100        -7.1865 
  12   0.0000      -0.039651        -1.0790 
  13   0.0000       0.044571         1.2128 
  14   0.0000       0.067407         1.8342 
  15   0.0000       0.110778         3.0144 
  16   0.0000       0.115674         3.1477 
  17   0.0000       0.143154         3.8954 
  18   0.0000       0.161866         4.4046 
  19   0.0000       0.206683         5.6241 
  20   0.0000       0.208957         5.6860 
  21   0.0000       0.245377         6.6770 
[...]



--------------------
Rotational spectrum 
--------------------
 
Rotational constants in cm-1:     1.875286     0.341326     0.305062 
Rotational constants in MHz : 56219.673838 10232.684747  9145.541911 

 Dipole components along the rotational axes: 
x,y,z [a.u.] :     0.990918     0.386455    -0.000002 
x,y,z [Debye]:     2.518714     0.982290    -0.000005 

 


           ************************************************************
           *        Program running with 8 parallel MPI-processes     *
           *              working on a common directory               *
           ************************************************************

-------------------------------------------------------------------------------
                               ORCA SCF HESSIAN
-------------------------------------------------------------------------------

Hessian of the Kohn-Sham DFT energy:
Kohn-Sham wavefunction type                      ... RKS
Hartree-Fock exchange scaling                    ...    0.200
Number of operators                              ...    1
Number of atoms                                  ...    7
Basis set dimensions                             ...  117
Integral neglect threshold                       ... 2.5e-11
Integral primitive cutoff                        ... 2.5e-12

Setting up DFT Hessian calculations              ... 

HESS GRID
---------

General Integration Accuracy     IntAcc      ... 4.629
Radial Grid Type                 RadialGrid  ... OptM3 with GC (2021)
Angular Grid (max. ang.)         AngularGrid ... 5 (Lebedev-434)
Angular grid pruning method      GridPruning ... 4 (adaptive)
Weight generation scheme         WeightScheme... Becke
Basis function cutoff            BFCut       ... 1.0000e-11
Integration weight cutoff        WCut        ... 1.0000e-14
Angular grids for H and He will be reduced by one unit
Partially contracted basis set               ... off
Rotationally invariant grid construction     ... off

Total number of grid points                  ...    48857
Total number of batches                      ...      768
Average number of points per batch           ...       63
Average number of grid points per atom       ...     6980

Building densities                               ... done   (      0.0 sec)
Calculating rho(r) on the grid                   ... done   (      0.0 sec)
Building xc-kernel on the grid                   ... done   (      0.0 sec)
                                                     done   (      0.3 sec)

Nuclear repulsion Hessian  (SHARK)               ... done   (      0.0 sec)

----------------------------------------------
Forming right-hand sides of CP-SCF equations     ...
----------------------------------------------
One electron integral derivatives  (SHARK)       ... done   (      0.0 sec)
Transforming the overlap derivative matrices     ... done   (      0.0 sec)
Making the Q(x) pseudodensities                  ... done   (      0.0 sec)
Adding the E*S(x)*S(y) terms to the Hessian      ... done   (      0.0 sec)
Calculating energy weighted overlap derivatives  ... done   (      0.0 sec)
Two electron integral derivatives (SHARK-RI)     ... done   (      1.0 sec)
Exchange-correlation integral derivatives        ... done   (      2.1 sec)
tr(F(y)Q(x)) contribution to the Hessian         ... done   (      0.0 sec)
Response fock operator R(S(x)) (SHARK-RIJCOSX)   ... done   (      0.5 sec)
XC Response fock operator R(S(x))                ... done   (      0.5 sec)
tr(F(y)S(x)) contribution to the Hessian         ... done   (      0.0 sec)
Transforming and finalizing RHSs                 ... done   (      0.0 sec)

----------------------------------------------
Solving the CP-SCF equations (RIJCOSX)           ...
----------------------------------------------
     CP-SCF ITERATION   0:   4.2087e-01 (   0.3 sec   0/ 21 done)
     CP-SCF ITERATION   1:   4.5595e-02 (   0.3 sec   0/ 21 done)
     CP-SCF ITERATION   2:   1.2796e-02 (   0.3 sec   0/ 21 done)
     CP-SCF ITERATION   3:   2.0483e-03 (   0.3 sec   1/ 21 done)
     CP-SCF ITERATION   4:   6.2739e-04 (   0.3 sec   3/ 21 done)
     CP-SCF ITERATION   5:   1.3755e-04 (   0.3 sec  18/ 21 done)
     CP-SCF ITERATION   6:   1.8539e-05 (   0.2 sec  21/ 21 done)
                    *** THE CP-SCF HAS CONVERGED ***

                                                 ... done   (      1.9 sec)
Forming perturbed density Hessian contributions  ... done   (      0.0 sec)
2nd integral derivative contribs (SHARK-RI)      ... done   (      4.2 sec)
Exchange-correlation Hessian                     ... done   (      1.0 sec)
Dispersion correction in the Hessian             ... done   (      0.2 sec)
Dipole derivatives                               ... done   (      0.1 sec)

Total SCF Hessian time: 0 days 0 hours 0 min 12 sec 

Writing the Hessian file to the disk             ... done


Maximum memory used throughout the entire SCFHESS-calculation: 77.4 MB

-----------------------
VIBRATIONAL FREQUENCIES
-----------------------

Scaling factor for frequencies =  1.000000000  (already applied!)

   0:         0.00 cm**-1
   1:         0.00 cm**-1
   2:         0.00 cm**-1
   3:         0.00 cm**-1
   4:         0.00 cm**-1
   5:         0.00 cm**-1
   6:      -175.69 cm**-1 ***imaginary mode***
   7:       512.76 cm**-1
   8:       750.68 cm**-1
   9:       928.94 cm**-1
  10:      1097.69 cm**-1
  11:      1135.76 cm**-1
  12:      1373.37 cm**-1
  13:      1427.49 cm**-1
  14:      1466.30 cm**-1
  15:      1474.70 cm**-1
  16:      1806.58 cm**-1
  17:      2870.44 cm**-1
  18:      3036.18 cm**-1
  19:      3098.55 cm**-1
  20:      3123.33 cm**-1


------------
NORMAL MODES
------------

These modes are the Cartesian displacements weighted by the diagonal matrix
M(i,i)=1/sqrt(m[i]) where m[i] is the mass of the displaced atom
Thus, these vectors are normalized but *not* orthogonal

                  0          1          2          3          4          5    
      0       0.000000   0.000000   0.000000   0.000000   0.000000   0.000000
      1       0.000000   0.000000   0.000000   0.000000   0.000000   0.000000
      2       0.000000   0.000000   0.000000   0.000000   0.000000   0.000000
      3       0.000000   0.000000   0.000000   0.000000   0.000000   0.000000
      4       0.000000   0.000000   0.000000   0.000000   0.000000   0.000000
      5       0.000000   0.000000   0.000000   0.000000   0.000000   0.000000
      6       0.000000   0.000000   0.000000   0.000000   0.000000   0.000000
      7       0.000000   0.000000   0.000000   0.000000   0.000000   0.000000
      8       0.000000   0.000000   0.000000   0.000000   0.000000   0.000000
      9       0.000000   0.000000   0.000000   0.000000   0.000000   0.000000
     10       0.000000   0.000000   0.000000   0.000000   0.000000   0.000000
     11       0.000000   0.000000   0.000000   0.000000   0.000000   0.000000
     12       0.000000   0.000000   0.000000   0.000000   0.000000   0.000000
     13       0.000000   0.000000   0.000000   0.000000   0.000000   0.000000
     14       0.000000   0.000000   0.000000   0.000000   0.000000   0.000000
     15       0.000000   0.000000   0.000000   0.000000   0.000000   0.000000
     16       0.000000   0.000000   0.000000   0.000000   0.000000   0.000000
     17       0.000000   0.000000   0.000000   0.000000   0.000000   0.000000
     18       0.000000   0.000000   0.000000   0.000000   0.000000   0.000000
     19       0.000000   0.000000   0.000000   0.000000   0.000000   0.000000
     20       0.000000   0.000000   0.000000   0.000000   0.000000   0.000000
                  6          7          8          9         10         11    
      0      -0.000005  -0.201758  -0.000017   0.400656  -0.148793   0.000043
      1      -0.000003  -0.181661  -0.000013   0.088022  -0.177444   0.000070
      2      -0.412524  -0.000088  -0.571158  -0.000011   0.000077   0.699801
      3      -0.000001  -0.011995   0.000006   0.154560  -0.119098   0.000012
      4       0.000011  -0.204923   0.000013   0.116877  -0.172680   0.000035
      5      -0.092941  -0.000013   0.086670   0.000018  -0.000034  -0.209471
      6      -0.000001  -0.184172   0.000012  -0.259860   0.003823   0.000000
      7       0.000001   0.026662  -0.000009  -0.008012   0.194681  -0.000031
      8       0.027294   0.000017   0.071385  -0.000002   0.000033   0.134964
      9       0.000001   0.213061  -0.000014   0.091979   0.056529  -0.000004
     10      -0.000007   0.104369  -0.000003  -0.042665   0.020399  -0.000010
     11       0.074640   0.000004  -0.044819  -0.000009   0.000003   0.042337
     12      -0.000030   0.211698   0.000031  -0.700624  -0.441783   0.000053
     13      -0.000019   0.402289   0.000004  -0.418896  -0.250852   0.000017
     14       0.510742   0.000006  -0.299612  -0.000038  -0.000097  -0.281806
     15       0.194195  -0.527127  -0.478174   0.047391   0.533367  -0.348606
     16      -0.420278   0.123444  -0.182686  -0.144574  -0.078860  -0.227599
     17      -0.250342   0.014912  -0.150613  -0.042791  -0.102860  -0.101082
     18      -0.194146  -0.527057   0.478157   0.047419   0.533558   0.348430
     19       0.420275   0.123485   0.182689  -0.144570  -0.078773   0.227621
     20      -0.250344  -0.014934  -0.150588   0.042790   0.102848  -0.101085
                 12         13         14         15         16         17    
      0       0.296561  -0.936483  -0.050372  -0.000037  -0.361558  -0.107974
      1      -0.039551   0.170669  -0.022293  -0.000009  -0.211670  -0.989549
      2      -0.000005   0.000033   0.000006  -0.037556  -0.000004   0.000046
      3      -0.012134   0.058738  -0.019221  -0.000004   0.602787   0.013079
      4      -0.014274   0.060390  -0.016558  -0.000006  -0.373811   0.081274
      5      -0.000001   0.000003  -0.000006   0.027565  -0.000044  -0.000003
      6      -0.108036  -0.050708   0.060295   0.000022  -0.041006   0.000969
      7      -0.074059  -0.001722  -0.022016  -0.000004   0.028507  -0.003413
      8       0.000004  -0.000004  -0.000016   0.052475  -0.000000  -0.000000
      9      -0.004036   0.030237   0.013613   0.000004  -0.393101  -0.002542
     10       0.018274  -0.068123  -0.005147  -0.000002   0.276195   0.001273
     11      -0.000000  -0.000002   0.000001  -0.005424   0.000035  -0.000000
     12       0.304547   0.045836  -0.365363  -0.000104  -0.226842  -0.024585
     13       0.304934   0.092446  -0.394622  -0.000123  -0.145937   0.041315
     14      -0.000039   0.000002   0.000214  -0.725759  -0.000018   0.000002
     15       0.447433   0.157517  -0.145013   0.429440   0.066837   0.002759
     16       0.248543   0.059536   0.479185  -0.216579   0.044184   0.000130
     17       0.302448   0.075113   0.317577  -0.052066   0.035223  -0.002224
     18       0.447430   0.157526  -0.144741  -0.429571   0.066866   0.002758
     19       0.248581   0.059534   0.479051   0.216849   0.044180   0.000129
     20      -0.302433  -0.075106  -0.317540  -0.052250  -0.035225   0.002217
                 18         19         20    
      0      -0.005572   0.000000   0.005876
      1      -0.017728   0.000008   0.040805
      2       0.000001   0.003374  -0.000003
      3       0.001341  -0.000000  -0.001283
      4       0.001796  -0.000001  -0.005098
      5       0.000000   0.001176   0.000000
      6      -0.040828   0.000003   0.041551
      7      -0.027809  -0.000007  -0.083341
      8       0.000002   0.091199  -0.000008
      9       0.000133   0.000000   0.000116
     10      -0.000129   0.000000   0.000385
     11      -0.000000  -0.000229   0.000000
     12       0.333117  -0.000064  -0.590905
     13      -0.369004   0.000068   0.632772
     14       0.000005   0.017894  -0.000010
     15       0.070448   0.091391   0.051688
     16       0.349392   0.417929   0.187026
     17      -0.498030  -0.559165  -0.286922
     18       0.070414  -0.091361   0.051690
     19       0.349353  -0.417916   0.187092
     20       0.497998  -0.559166   0.287023


-----------
IR SPECTRUM
-----------

 Mode   freq       eps      Int      T**2         TX        TY        TZ
       cm**-1   L/(mol*cm) km/mol    a.u.
----------------------------------------------------------------------------
  7:    512.76   0.002454   12.40  0.001493  (-0.028779 -0.025792  0.000005)
  8:    750.68   0.000304    1.54  0.000126  ( 0.000011  0.000003 -0.011241)
  9:    928.94   0.002625   13.27  0.000882  ( 0.022305  0.019604  0.000000)
 10:   1097.69   0.008018   40.52  0.002279  (-0.041846 -0.022986 -0.000005)
 11:   1135.76   0.000067    0.34  0.000018  ( 0.000009  0.000006 -0.004278)
 12:   1373.37   0.003011   15.22  0.000684  ( 0.022288  0.013690 -0.000005)
 13:   1427.49   0.003043   15.38  0.000665  ( 0.015658  0.020497  0.000000)
 14:   1466.30   0.002679   13.54  0.000570  (-0.014937  0.018628  0.000007)
 15:   1474.70   0.001678    8.48  0.000355  (-0.000006  0.000002 -0.018843)
 16:   1806.58   0.035190  177.84  0.006079  ( 0.071713 -0.030593 -0.000002)
 17:   2870.44   0.025399  128.36  0.002761  ( 0.009407  0.051699  0.000001)
 18:   3036.18   0.000311    1.57  0.000032  (-0.005247  0.002097 -0.000000)
 19:   3098.55   0.000744    3.76  0.000075  (-0.000001 -0.000005  0.008659)
 20:   3123.33   0.003469   17.53  0.000347  ( 0.012906 -0.013417 -0.000001)

* The epsilon (eps) is given for a Dirac delta lineshape.
** The dipole moment derivative (T) already includes vibrational overlap.

The first frequency considered to be a vibration is 7
The total number of vibrations considered is 14


--------------------------
THERMOCHEMISTRY AT 298.15K
--------------------------

Temperature         ... 298.15 K
Pressure            ... 1.00 atm
Total Mass          ... 44.05 AMU

Throughout the following assumptions are being made:
  (1) The electronic state is orbitally nondegenerate
  (2) There are no thermally accessible electronically excited states
  (3) Hindered rotations indicated by low frequency modes are not
      treated as such but are treated as vibrations and this may
      cause some error
  (4) All equations used are the standard statistical mechanics
      equations for an ideal gas
  (5) All vibrations are strictly harmonic

freq.     512.76  E(vib)   ...       0.13 
freq.     750.68  E(vib)   ...       0.06 
freq.     928.94  E(vib)   ...       0.03 
freq.    1097.69  E(vib)   ...       0.02 
freq.    1135.76  E(vib)   ...       0.01 
freq.    1373.37  E(vib)   ...       0.01 
freq.    1427.49  E(vib)   ...       0.00 
freq.    1466.30  E(vib)   ...       0.00 
freq.    1474.70  E(vib)   ...       0.00 
freq.    1806.58  E(vib)   ...       0.00 
freq.    2870.44  E(vib)   ...       0.00 
freq.    3036.18  E(vib)   ...       0.00 
freq.    3098.55  E(vib)   ...       0.00 
freq.    3123.33  E(vib)   ...       0.00 

------------
INNER ENERGY
------------

The inner energy is: U= E(el) + E(ZPE) + E(vib) + E(rot) + E(trans)
    E(el)   - is the total energy from the electronic structure calculation
              = E(kin-el) + E(nuc-el) + E(el-el) + E(nuc-nuc)
    E(ZPE)  - the the zero temperature vibrational energy from the frequency calculation
    E(vib)  - the the finite temperature correction to E(ZPE) due to population
              of excited vibrational states
    E(rot)  - is the rotational thermal energy
    E(trans)- is the translational thermal energy

Summary of contributions to the inner energy U:
Electronic energy                ...   -153.81368803 Eh
Zero point energy                ...      0.05491014 Eh      34.46 kcal/mol
Thermal vibrational correction   ...      0.00043137 Eh       0.27 kcal/mol
Thermal rotational correction    ...      0.00141627 Eh       0.89 kcal/mol
Thermal translational correction ...      0.00141627 Eh       0.89 kcal/mol
-----------------------------------------------------------------------
Total thermal energy                   -153.75551397 Eh


Summary of corrections to the electronic energy:
(perhaps to be used in another calculation)
Total thermal correction                  0.00326391 Eh       2.05 kcal/mol
Non-thermal (ZPE) correction              0.05491014 Eh      34.46 kcal/mol
-----------------------------------------------------------------------
Total correction                          0.05817405 Eh      36.50 kcal/mol


--------
ENTHALPY
--------

The enthalpy is H = U + kB*T
                kB is Boltzmann's constant
Total free energy                 ...   -153.75551397 Eh 
Thermal Enthalpy correction       ...      0.00094421 Eh       0.59 kcal/mol
-----------------------------------------------------------------------
Total Enthalpy                    ...   -153.75456976 Eh


Note: Rotational entropy computed according to Herzberg 
Infrared and Raman Spectra, Chapter V,1, Van Nostrand Reinhold, 1945 
Point Group:  Cs, Symmetry Number:   1  
Rotational constants in cm-1:     1.875286     0.341326     0.305062 

Vibrational entropy computed according to the QRRHO of S. Grimme
Chem.Eur.J. 2012 18 9955


-------
ENTROPY
-------

The entropy contributions are T*S = T*(S(el)+S(vib)+S(rot)+S(trans))
     S(el)   - electronic entropy
     S(vib)  - vibrational entropy
     S(rot)  - rotational entropy
     S(trans)- translational entropy
The entropies will be listed as multiplied by the temperature to get
units of energy

Electronic entropy                ...      0.00000000 Eh      0.00 kcal/mol
Vibrational entropy               ...      0.00056391 Eh      0.35 kcal/mol
Rotational entropy                ...      0.01028192 Eh      6.45 kcal/mol
Translational entropy             ...      0.01771022 Eh     11.11 kcal/mol
-----------------------------------------------------------------------
Final entropy term                ...      0.02855604 Eh     17.92 kcal/mol

In case the symmetry of your molecule has not been determined correctly
or in case you have a reason to use a different symmetry number we print 
out the resulting rotational entropy values for sn=1,12 :
 --------------------------------------------------------
|  sn= 1 | S(rot)=       0.01028192 Eh      6.45 kcal/mol|
|  sn= 2 | S(rot)=       0.00962746 Eh      6.04 kcal/mol|
|  sn= 3 | S(rot)=       0.00924463 Eh      5.80 kcal/mol|
|  sn= 4 | S(rot)=       0.00897301 Eh      5.63 kcal/mol|
|  sn= 5 | S(rot)=       0.00876232 Eh      5.50 kcal/mol|
|  sn= 6 | S(rot)=       0.00859018 Eh      5.39 kcal/mol|
|  sn= 7 | S(rot)=       0.00844463 Eh      5.30 kcal/mol|
|  sn= 8 | S(rot)=       0.00831855 Eh      5.22 kcal/mol|
|  sn= 9 | S(rot)=       0.00820734 Eh      5.15 kcal/mol|
|  sn=10 | S(rot)=       0.00810786 Eh      5.09 kcal/mol|
|  sn=11 | S(rot)=       0.00801787 Eh      5.03 kcal/mol|
|  sn=12 | S(rot)=       0.00793572 Eh      4.98 kcal/mol|
 --------------------------------------------------------


-------------------
GIBBS FREE ENERGY
-------------------

The Gibbs free energy is G = H - T*S

Total enthalpy                    ...   -153.75456976 Eh 
Total entropy correction          ...     -0.02855604 Eh    -17.92 kcal/mol
-----------------------------------------------------------------------
Final Gibbs free energy         ...   -153.78312581 Eh

For completeness - the Gibbs free energy minus the electronic energy
G-E(el)                           ...      0.03056222 Eh     19.18 kcal/mol


Timings for individual modules:

Sum of individual times         ...       18.719 sec (=   0.312 min)
GTO integral calculation        ...        0.529 sec (=   0.009 min)   2.8 %
SCF iterations                  ...        4.717 sec (=   0.079 min)  25.2 %
SCF Gradient evaluation         ...        0.903 sec (=   0.015 min)   4.8 %
Geometry relaxation             ...        0.032 sec (=   0.001 min)   0.2 %
Analytical frequency calculation...       12.538 sec (=   0.209 min)  67.0 %
                             ****ORCA TERMINATED NORMALLY****
TOTAL RUN TIME: 0 days 0 hours 0 minutes 19 seconds 66 msec
