
                                 *****************
                                 * O   R   C   A *
                                 *****************

                                            #,                                       
                                            ###                                      
                                            ####                                     
                                            #####                                    
                                            ######                                   
                                           ########,                                 
                                     ,,################,,,,,                         
                               ,,#################################,,                 
                          ,,##########################################,,             
                       ,#########################################, ''#####,          
                    ,#############################################,,   '####,        
                  ,##################################################,,,,####,       
                ,###########''''           ''''###############################       
              ,#####''   ,,,,##########,,,,          '''####'''          '####       
            ,##' ,,,,###########################,,,                        '##       
           ' ,,###''''                  '''############,,,                           
         ,,##''                                '''############,,,,        ,,,,,,###''
      ,#''                                            '''#######################'''  
     '                                                          ''''####''''         
             ,#######,   #######,   ,#######,      ##                                
            ,#'     '#,  ##    ##  ,#'     '#,    #''#        ######   ,####,        
            ##       ##  ##   ,#'  ##            #'  '#       #        #'  '#        
            ##       ##  #######   ##           ,######,      #####,   #    #        
            '#,     ,#'  ##    ##  '#,     ,#' ,#      #,         ##   #,  ,#        
             '#######'   ##     ##  '#######'  #'      '#     #####' # '####'        



                  #######################################################
                  #                        -***-                        #
                  #          Department of theory and spectroscopy      #
                  #    Directorship and core code : Frank Neese         #
                  #        Max Planck Institute fuer Kohlenforschung    #
                  #                Kaiser Wilhelm Platz 1               #
                  #                 D-45470 Muelheim/Ruhr               #
                  #                      Germany                        #
                  #                                                     #
                  #                  All rights reserved                #
                  #                        -***-                        #
                  #######################################################


                         Program Version 5.0.1 -  RELEASE  -


 With contributions from (in alphabetic order):
   Daniel Aravena         : Magnetic Suceptibility
   Michael Atanasov       : Ab Initio Ligand Field Theory (pilot matlab implementation)
   Alexander A. Auer      : GIAO ZORA, VPT2 properties, NMR spectrum
   Ute Becker             : Parallelization
   Giovanni Bistoni       : ED, misc. LED, open-shell LED, HFLD
   Martin Brehm           : Molecular dynamics
   Dmytro Bykov           : SCF Hessian
   Vijay G. Chilkuri      : MRCI spin determinant printing, contributions to CSF-ICE
   Dipayan Datta          : RHF DLPNO-CCSD density
   Achintya Kumar Dutta   : EOM-CC, STEOM-CC
   Dmitry Ganyushin       : Spin-Orbit,Spin-Spin,Magnetic field MRCI
   Miquel Garcia          : C-PCM and meta-GGA Hessian, CC/C-PCM, Gaussian charge scheme
   Yang Guo               : DLPNO-NEVPT2, F12-NEVPT2, CIM, IAO-localization
   Andreas Hansen         : Spin unrestricted coupled pair/coupled cluster methods
   Benjamin Helmich-Paris : MC-RPA, TRAH-SCF, COSX integrals
   Lee Huntington         : MR-EOM, pCC
   Robert Izsak           : Overlap fitted RIJCOSX, COSX-SCS-MP3, EOM
   Marcus Kettner         : VPT2
   Christian Kollmar      : KDIIS, OOCD, Brueckner-CCSD(T), CCSD density, CASPT2, CASPT2-K
   Simone Kossmann        : Meta GGA functionals, TD-DFT gradient, OOMP2, MP2 Hessian
   Martin Krupicka        : Initial AUTO-CI
   Lucas Lang             : DCDCAS
   Marvin Lechner         : AUTO-CI (C++ implementation), FIC-MRCC
   Dagmar Lenk            : GEPOL surface, SMD
   Dimitrios Liakos       : Extrapolation schemes; Compound Job, initial MDCI parallelization
   Dimitrios Manganas     : Further ROCIS development; embedding schemes
   Dimitrios Pantazis     : SARC Basis sets
   Anastasios Papadopoulos: AUTO-CI, single reference methods and gradients
   Taras Petrenko         : DFT Hessian,TD-DFT gradient, ASA, ECA, R-Raman, ABS, FL, XAS/XES, NRVS
   Peter Pinski           : DLPNO-MP2, DLPNO-MP2 Gradient
   Christoph Reimann      : Effective Core Potentials
   Marius Retegan         : Local ZFS, SOC
   Christoph Riplinger    : Optimizer, TS searches, QM/MM, DLPNO-CCSD(T), (RO)-DLPNO pert. Triples
   Tobias Risthaus        : Range-separated hybrids, TD-DFT gradient, RPA, STAB
   Michael Roemelt        : Original ROCIS implementation
   Masaaki Saitow         : Open-shell DLPNO-CCSD energy and density
   Barbara Sandhoefer     : DKH picture change effects
   Avijit Sen             : IP-ROCIS
   Kantharuban Sivalingam : CASSCF convergence, NEVPT2, FIC-MRCI
   Bernardo de Souza      : ESD, SOC TD-DFT
   Georgi Stoychev        : AutoAux, RI-MP2 NMR, DLPNO-MP2 response
   Willem Van den Heuvel  : Paramagnetic NMR
   Boris Wezisla          : Elementary symmetry handling
   Frank Wennmohs         : Technical directorship


 We gratefully acknowledge several colleagues who have allowed us to
 interface, adapt or use parts of their codes:
   Stefan Grimme, W. Hujo, H. Kruse, P. Pracht,  : VdW corrections, initial TS optimization,
                  C. Bannwarth, S. Ehlert          DFT functionals, gCP, sTDA/sTD-DF
   Ed Valeev, F. Pavosevic, A. Kumar             : LibInt (2-el integral package), F12 methods
   Garnet Chan, S. Sharma, J. Yang, R. Olivares  : DMRG
   Ulf Ekstrom                                   : XCFun DFT Library
   Mihaly Kallay                                 : mrcc  (arbitrary order and MRCC methods)
   Jiri Pittner, Ondrej Demel                    : Mk-CCSD
   Frank Weinhold                                : gennbo (NPA and NBO analysis)
   Christopher J. Cramer and Donald G. Truhlar   : smd solvation model
   Lars Goerigk                                  : TD-DFT with DH, B97 family of functionals
   V. Asgeirsson, H. Jonsson                     : NEB implementation
   FAccTs GmbH                                   : IRC, NEB, NEB-TS, DLPNO-Multilevel, CI-OPT
                                                   MM, QMMM, 2- and 3-layer-ONIOM, Crystal-QMMM,
                                                   LR-CPCM, SF, NACMEs, symmetry and pop. for TD-DFT,
                                                   nearIR, NL-DFT gradient (VV10), updates on ESD,
                                                   ML-optimized integration grids
   S Lehtola, MJT Oliveira, MAL Marques          : LibXC Library
   Liviu Ungur et al                             : ANISO software


 Your calculation uses the libint2 library for the computation of 2-el integrals
 For citations please refer to: http://libint.valeyev.net

 Your ORCA version has been built with support for libXC version: 5.1.0
 For citations please refer to: https://tddft.org/programs/libxc/

 This ORCA versions uses:
   CBLAS   interface :  Fast vector & matrix operations
   LAPACKE interface :  Fast linear algebra routines
   SCALAPACK package :  Parallel linear algebra routines
   Shared memory     :  Shared parallel matrices
   BLAS/LAPACK       :  OpenBLAS 0.3.15  USE64BITINT DYNAMIC_ARCH NO_AFFINITY SkylakeX SINGLE_THREADED
        Core in use  :  SkylakeX
   Copyright (c) 2011-2014, The OpenBLAS Project


Your calculation utilizes the atom-pairwise dispersion correction
with the Becke-Johnson damping scheme (D3BJ)
Cite in your paper:
S.Grimme, S.Ehrlich, L.Goerigk, J Comput Chem, (2011), 32, 1456–1465 
S.Grimme, J.Antony, S.Ehrlich and H.Krieg, J.Chem.Phys., 132, (2010), 154104 
   

================================================================================

----- Orbital basis set information -----
Your calculation utilizes the basis: def2-TZVP
   F. Weigend and R. Ahlrichs, Phys. Chem. Chem. Phys. 7, 3297 (2005).

----- AuxJ basis set information -----
Your calculation utilizes the auxiliary basis: def2/J
   F. Weigend, Phys. Chem. Chem. Phys. 8, 1057 (2006).

================================================================================
                                        WARNINGS
                       Please study these warnings very carefully!
================================================================================

WARNING: Old DensityContainer found on disk!
         Will remove this file - 
         If you want to keep old densities, please start your calculation with a different basename. 


WARNING: Geometry Optimization
  ===> : Switching off AutoStart
         For restart on a previous wavefunction, please use MOREAD

INFO   : the flag for use of the SHARK integral package has been found!

================================================================================
                                       INPUT FILE
================================================================================
NAME = acetaldehyde_QRC.inp
|  1> 
|  2> ! pal8 B3LYP def2-tzvp D3BJ  Opt Freq
|  3> 
|  4> # acetaldehyde_QRC
|  5> 
|  6> * xyz 0 1
|  7>  H   0.33790250   1.51535410  -0.12376920
|  8>  C   0.23874870   0.40902130  -0.02782630
|  9>  C  -1.16778430  -0.13504270   0.00820120
| 10>  O   1.22128130  -0.28562010   0.02235700
| 11>  H  -1.91317700   0.65972730   0.15322360
| 12>  H  -1.25080050  -0.89343340   0.80434940
| 13>  H  -1.36725980  -0.64125450  -0.95454620
| 14> *
| 15> 
| 16> 
| 17>                          ****END OF INPUT****
================================================================================

                       *****************************
                       * Geometry Optimization Run *
                       *****************************

Geometry optimization settings:
Update method            Update   .... BFGS
Choice of coordinates    CoordSys .... Z-matrix Internals
Initial Hessian          InHess   .... Almoef's Model

Convergence Tolerances:
Energy Change            TolE     ....  5.0000e-06 Eh
Max. Gradient            TolMAXG  ....  3.0000e-04 Eh/bohr
RMS Gradient             TolRMSG  ....  1.0000e-04 Eh/bohr
Max. Displacement        TolMAXD  ....  4.0000e-03 bohr
RMS Displacement         TolRMSD  ....  2.0000e-03 bohr
Strict Convergence                ....  False
------------------------------------------------------------------------------
                        ORCA OPTIMIZATION COORDINATE SETUP
------------------------------------------------------------------------------

The optimization will be done in new redundant internal coordinates
Making redundant internal coordinates   ...  (new redundants) done
Evaluating the initial hessian          ...  (Almloef) done
Evaluating the coordinates              ...  done
Calculating the B-matrix                .... done
Calculating the G-matrix                .... done
Diagonalizing the G-matrix              .... done
The first mode is                       ....    6
The number of degrees of freedom        ....   15

    -----------------------------------------------------------------
                    Redundant Internal Coordinates


    -----------------------------------------------------------------
         Definition                    Initial Value    Approx d2E/dq
    -----------------------------------------------------------------
      1. B(C   1,H   0)                  1.1149         0.328618   
      2. B(C   2,C   1)                  1.5085         0.404245   
      3. B(O   3,C   1)                  1.2043         1.106871   
      4. B(H   4,C   2)                  1.0992         0.348098   
      5. B(H   5,C   2)                  1.1027         0.343712   
      6. B(H   6,C   2)                  1.1059         0.339720   
      7. A(C   2,C   1,O   3)          123.4807         0.443195   
      8. A(H   0,C   1,O   3)          120.2240         0.381310   
      9. A(H   0,C   1,C   2)          116.2868         0.323650   
     10. A(H   4,C   2,H   5)          110.5466         0.287196   
     11. A(C   1,C   2,H   5)          109.6024         0.326047   
     12. A(C   1,C   2,H   6)          108.2092         0.325421   
     13. A(H   5,C   2,H   6)          107.4675         0.286107   
     14. A(H   4,C   2,H   6)          108.8753         0.286673   
     15. A(C   1,C   2,H   4)          112.0023         0.326728   
     16. D(H   4,C   2,C   1,O   3)    168.6041         0.012116   
     17. D(H   5,C   2,C   1,H   0)   -135.5296         0.012116   
     18. D(H   5,C   2,C   1,O   3)     45.5296         0.012116   
     19. D(H   6,C   2,C   1,H   0)    107.5608         0.012116   
     20. D(H   6,C   2,C   1,O   3)    -71.3800         0.012116   
     21. D(H   4,C   2,C   1,H   0)    -12.4551         0.012116   
    -----------------------------------------------------------------

Number of atoms                         .... 7
Number of degrees of freedom            .... 21

         *************************************************************
         *                GEOMETRY OPTIMIZATION CYCLE   1            *
         *************************************************************
---------------------------------
CARTESIAN COORDINATES (ANGSTROEM)
---------------------------------
  H      0.337902    1.515354   -0.123769
  C      0.238749    0.409021   -0.027826
  C     -1.167784   -0.135043    0.008201
  O      1.221281   -0.285620    0.022357
  H     -1.913177    0.659727    0.153224
  H     -1.250800   -0.893433    0.804349
  H     -1.367260   -0.641254   -0.954546

----------------------------
CARTESIAN COORDINATES (A.U.)
----------------------------
  NO LB      ZA    FRAG     MASS         X           Y           Z
   0 H     1.0000    0     1.008    0.638543    2.863604   -0.233890
   1 C     6.0000    0    12.011    0.451170    0.772938   -0.052584
   2 C     6.0000    0    12.011   -2.206793   -0.255194    0.015498
   3 O     8.0000    0    15.999    2.307887   -0.539744    0.042249
   4 H     1.0000    0     1.008   -3.615381    1.246704    0.289551
   5 H     1.0000    0     1.008   -2.363670   -1.688344    1.520000
   6 H     1.0000    0     1.008   -2.583747   -1.211795   -1.803831

--------------------------------
INTERNAL COORDINATES (ANGSTROEM)
--------------------------------
 H      0   0   0     0.000000000000     0.00000000     0.00000000
 C      1   0   0     1.114903036354     0.00000000     0.00000000
 C      2   1   0     1.508522024016   116.28684030     0.00000000
 O      2   1   3     1.204331909507   120.22399225   178.97755622
 H      3   2   1     1.099227513582   112.00232870   347.54491653
 H      3   2   1     1.102678602165   109.60241954   224.47035707
 H      3   2   1     1.105858678931   108.20919051   107.56081228

---------------------------
INTERNAL COORDINATES (A.U.)
---------------------------
 H      0   0   0     0.000000000000     0.00000000     0.00000000
 C      1   0   0     2.106861404586     0.00000000     0.00000000
 C      2   1   0     2.850693492379   116.28684030     0.00000000
 O      2   1   3     2.275857483310   120.22399225   178.97755622
 H      3   2   1     2.077238959541   112.00232870   347.54491653
 H      3   2   1     2.083760571827   109.60241954   224.47035707
 H      3   2   1     2.089770045999   108.20919051   107.56081228

---------------------
BASIS SET INFORMATION
---------------------
There are 3 groups of distinct atoms

 Group   1 Type H   : 5s1p contracted to 3s1p pattern {311/1}
 Group   2 Type C   : 11s6p2d1f contracted to 5s3p2d1f pattern {62111/411/11/1}
 Group   3 Type O   : 11s6p2d1f contracted to 5s3p2d1f pattern {62111/411/11/1}

Atom   0H    basis set group =>   1
Atom   1C    basis set group =>   2
Atom   2C    basis set group =>   2
Atom   3O    basis set group =>   3
Atom   4H    basis set group =>   1
Atom   5H    basis set group =>   1
Atom   6H    basis set group =>   1
---------------------------------
AUXILIARY/J BASIS SET INFORMATION
---------------------------------
There are 3 groups of distinct atoms

 Group   1 Type H   : 5s2p1d contracted to 3s1p1d pattern {311/2/1}
 Group   2 Type C   : 12s5p4d2f1g contracted to 6s4p3d1f1g pattern {711111/2111/211/2/1}
 Group   3 Type O   : 12s5p4d2f1g contracted to 6s4p3d1f1g pattern {711111/2111/211/2/1}

Atom   0H    basis set group =>   1
Atom   1C    basis set group =>   2
Atom   2C    basis set group =>   2
Atom   3O    basis set group =>   3
Atom   4H    basis set group =>   1
Atom   5H    basis set group =>   1
Atom   6H    basis set group =>   1


           ************************************************************
           *        Program running with 8 parallel MPI-processes     *
           *              working on a common directory               *
           ************************************************************
------------------------------------------------------------------------------
                           ORCA GTO INTEGRAL CALCULATION
                           -- RI-GTO INTEGRALS CHOSEN --
------------------------------------------------------------------------------
------------------------------------------------------------------------------
                   ___                                                        
                  /   \      - P O W E R E D   B Y -                         
                 /     \                                                     
                 |  |  |   _    _      __       _____    __    __             
                 |  |  |  | |  | |    /  \     |  _  \  |  |  /  |          
                  \  \/   | |  | |   /    \    | | | |  |  | /  /          
                 / \  \   | |__| |  /  /\  \   | |_| |  |  |/  /          
                |  |  |   |  __  | /  /__\  \  |    /   |      \           
                |  |  |   | |  | | |   __   |  |    \   |  |\   \          
                \     /   | |  | | |  |  |  |  | |\  \  |  | \   \       
                 \___/    |_|  |_| |__|  |__|  |_| \__\ |__|  \__/        
                                                                              
                      - O R C A' S   B I G   F R I E N D -                    
                                      &                                       
                       - I N T E G R A L  F E E D E R -                       
                                                                              
 v1 FN, 2020, v2 2021                                                         
------------------------------------------------------------------------------


Reading SHARK input file acetaldehyde_QRC.SHARKINP.tmp ... ok
----------------------
SHARK INTEGRAL PACKAGE
----------------------

Number of atoms                             ...      7
Number of basis functions                   ...    117
Number of shells                            ...     49
Maximum angular momentum                    ...      3
Integral batch strategy                     ... SHARK/LIBINT Hybrid
RI-J (if used) integral strategy            ... SPLIT-RIJ (Revised 2003 algorithm where possible)
Printlevel                                  ...      1
Contraction scheme used                     ... SEGMENTED contraction
Coulomb Range Separation                    ... NOT USED
Exchange Range Separation                   ... NOT USED
Finite Nucleus Model                        ... NOT USED
Auxiliary Coulomb fitting basis             ... AVAILABLE
   # of basis functions in Aux-J            ...    191
   # of shells in Aux-J                     ...     65
   Maximum angular momentum in Aux-J        ...      4
Auxiliary J/K fitting basis                 ... NOT available
Auxiliary Correlation fitting basis         ... NOT available
Auxiliary 'external' fitting basis          ... NOT available
Integral threshold                          ...     2.500000e-11
Primitive cut-off                           ...     2.500000e-12
Primitive pair pre-selection threshold      ...     2.500000e-12

Calculating pre-screening integrals         ... done (  0.0 sec) Dimension = 49
Organizing shell pair data                  ... done (  0.0 sec)
Shell pair information
Total number of shell pairs                 ...      1225
Shell pairs after pre-screening             ...      1210
Total number of primitive shell pairs       ...      3648
Primitive shell pairs kept                  ...      3074
          la=0 lb=0:    367 shell pairs
          la=1 lb=0:    349 shell pairs
          la=1 lb=1:     91 shell pairs
          la=2 lb=0:    160 shell pairs
          la=2 lb=1:     78 shell pairs
          la=2 lb=2:     21 shell pairs
          la=3 lb=0:     81 shell pairs
          la=3 lb=1:     39 shell pairs
          la=3 lb=2:     18 shell pairs
          la=3 lb=3:      6 shell pairs

Calculating one electron integrals          ... done (  0.0 sec)
Calculating RI/J V-Matrix + Cholesky decomp.... done (  0.0 sec)
Calculating Nuclear repulsion               ... done (  0.0 sec) ENN=     69.631203443547 Eh

SHARK setup successfully completed in   0.1 seconds

Maximum memory used throughout the entire GTOINT-calculation: 13.7 MB


           ************************************************************
           *        Program running with 8 parallel MPI-processes     *
           *              working on a common directory               *
           ************************************************************
-------------------------------------------------------------------------------
                                 ORCA SCF
-------------------------------------------------------------------------------

------------
SCF SETTINGS
------------
Hamiltonian:
 Density Functional     Method          .... DFT(GTOs)
 Exchange Functional    Exchange        .... B88
   X-Alpha parameter    XAlpha          ....  0.666667
   Becke's b parameter  XBeta           ....  0.004200
 Correlation Functional Correlation     .... LYP
 LDA part of GGA corr.  LDAOpt          .... VWN-5
 Gradients option       PostSCFGGA      .... off
 Hybrid DFT is turned on
   Fraction HF Exchange ScalHFX         ....  0.200000
   Scaling of DF-GGA-X  ScalDFX         ....  0.720000
   Scaling of DF-GGA-C  ScalDFC         ....  0.810000
   Scaling of DF-LDA-C  ScalLDAC        ....  1.000000
   Perturbative correction              ....  0.000000
   Density functional embedding theory  .... OFF
   NL short-range parameter             ....  4.800000
 RI-approximation to the Coulomb term is turned on
   Number of AuxJ basis functions       .... 191
   RIJ-COSX (HFX calculated with COS-X)).... on


General Settings:
 Integral files         IntName         .... acetaldehyde_QRC
 Hartree-Fock type      HFTyp           .... RHF
 Total Charge           Charge          ....    0
 Multiplicity           Mult            ....    1
 Number of Electrons    NEL             ....   24
 Basis Dimension        Dim             ....  117
 Nuclear Repulsion      ENuc            ....     69.6312034435 Eh

Convergence Acceleration:
 DIIS                   CNVDIIS         .... on
   Start iteration      DIISMaxIt       ....    12
   Startup error        DIISStart       ....  0.200000
   # of expansion vecs  DIISMaxEq       ....     5
   Bias factor          DIISBfac        ....   1.050
   Max. coefficient     DIISMaxC        ....  10.000
 Trust-Rad. Augm. Hess. CNVTRAH         .... auto
   Auto Start mean grad. ratio tolernc. ....  1.125000
   Auto Start start iteration           ....    20
   Auto Start num. interpolation iter.  ....    10
   Max. Number of Micro iterations      ....    16
   Max. Number of Macro iterations      .... Maxiter - #DIIS iter
   Number of Davidson start vectors     ....     2
   Converg. threshold I  (grad. norm)   ....   1.000e-05
   Converg. threshold II (energy diff.) ....   1.000e-08
   Grad. Scal. Fac. for Micro threshold ....   0.100
   Minimum threshold for Micro iter.    ....   0.010
   NR start threshold (gradient norm)   ....   0.001
   Initial trust radius                 ....   0.400
   Minimum AH scaling param. (alpha)    ....   1.000
   Maximum AH scaling param. (alpha)    .... 1000.000
   Orbital update algorithm             .... Taylor
   White noise on init. David. guess    .... on
   Maximum white noise                  ....   0.010
   Quad. conv. algorithm                .... NR
 SOSCF                  CNVSOSCF        .... on
   Start iteration      SOSCFMaxIt      ....   150
   Startup grad/error   SOSCFStart      ....  0.003300
 Level Shifting         CNVShift        .... on
   Level shift para.    LevelShift      ....    0.2500
   Turn off err/grad.   ShiftErr        ....    0.0010
 Zerner damping         CNVZerner       .... off
 Static damping         CNVDamp         .... on
   Fraction old density DampFac         ....    0.7000
   Max. Damping (<1)    DampMax         ....    0.9800
   Min. Damping (>=0)   DampMin         ....    0.0000
   Turn off err/grad.   DampErr         ....    0.1000
 Fernandez-Rico         CNVRico         .... off

SCF Procedure:
 Maximum # iterations   MaxIter         ....   125
 SCF integral mode      SCFMode         .... Direct
   Integral package                     .... SHARK and LIBINT hybrid scheme
 Reset frequency        DirectResetFreq ....    20
 Integral Threshold     Thresh          ....  2.500e-11 Eh
 Primitive CutOff       TCut            ....  2.500e-12 Eh

Convergence Tolerance:
 Convergence Check Mode ConvCheckMode   .... Total+1el-Energy
 Convergence forced     ConvForced      .... 0
 Energy Change          TolE            ....  1.000e-08 Eh
 1-El. energy change                    ....  1.000e-05 Eh
 Orbital Gradient       TolG            ....  1.000e-05
 Orbital Rotation angle TolX            ....  1.000e-05
 DIIS Error             TolErr          ....  5.000e-07


Diagonalization of the overlap matrix:
Smallest eigenvalue                        ... 5.659e-04
Time for diagonalization                   ...    0.002 sec
Threshold for overlap eigenvalues          ... 1.000e-08
Number of eigenvalues below threshold      ... 0
Time for construction of square roots      ...    0.001 sec
Total time needed                          ...    0.003 sec

Time for model grid setup =    0.017 sec

------------------------------
INITIAL GUESS: MODEL POTENTIAL
------------------------------
Loading Hartree-Fock densities                     ... done
Calculating cut-offs                               ... done
Initializing the effective Hamiltonian             ... done
Setting up the integral package (SHARK)            ... done
Starting the Coulomb interaction                   ... done (   0.0 sec)
Reading the grid                                   ... done
Mapping shells                                     ... done
Starting the XC term evaluation                    ... done (   0.0 sec)
  promolecular density results
     # of electrons  =     23.998086132
     EX              =    -19.622989652
     EC              =     -0.792068832
     EX+EC           =    -20.415058484
Transforming the Hamiltonian                       ... done (   0.0 sec)
Diagonalizing the Hamiltonian                      ... done (   0.0 sec)
Back transforming the eigenvectors                 ... done (   0.0 sec)
Now organizing SCF variables                       ... done
                      ------------------
                      INITIAL GUESS DONE (   0.0 sec)
                      ------------------
-------------------
DFT GRID GENERATION
-------------------

General Integration Accuracy     IntAcc      ... 4.388
Radial Grid Type                 RadialGrid  ... OptM3 with GC (2021)
Angular Grid (max. ang.)         AngularGrid ... 4 (Lebedev-302)
Angular grid pruning method      GridPruning ... 4 (adaptive)
Weight generation scheme         WeightScheme... Becke
Basis function cutoff            BFCut       ... 1.0000e-11
Integration weight cutoff        WCut        ... 1.0000e-14
Angular grids for H and He will be reduced by one unit
Partially contracted basis set               ... off
Rotationally invariant grid construction     ... off

Total number of grid points                  ...    31326
Total number of batches                      ...      493
Average number of points per batch           ...       63
Average number of grid points per atom       ...     4475
Time for grid setup =    0.102 sec

--------------------
COSX GRID GENERATION
--------------------

GRIDX 1
-------
General Integration Accuracy     IntAcc      ... 3.816
Radial Grid Type                 RadialGrid  ... OptM3 with GC (2021)
Angular Grid (max. ang.)         AngularGrid ... 1 (Lebedev-50)
Angular grid pruning method      GridPruning ... 4 (adaptive)
Weight generation scheme         WeightScheme... Becke
Basis function cutoff            BFCut       ... 1.0000e-11
Integration weight cutoff        WCut        ... 1.0000e-14
Angular grids for H and He will be reduced by one unit
Partially contracted basis set               ... on
Rotationally invariant grid construction     ... off

Total number of grid points                  ...     4040
Total number of batches                      ...       68
Average number of points per batch           ...       59
Average number of grid points per atom       ...      577
UseSFitting                                  ... on

GRIDX 2
-------
General Integration Accuracy     IntAcc      ... 4.020
Radial Grid Type                 RadialGrid  ... OptM3 with GC (2021)
Angular Grid (max. ang.)         AngularGrid ... 2 (Lebedev-110)
Angular grid pruning method      GridPruning ... 4 (adaptive)
Weight generation scheme         WeightScheme... Becke
Basis function cutoff            BFCut       ... 1.0000e-11
Integration weight cutoff        WCut        ... 1.0000e-14
Angular grids for H and He will be reduced by one unit
Partially contracted basis set               ... on
Rotationally invariant grid construction     ... off

Total number of grid points                  ...     8742
Total number of batches                      ...      139
Average number of points per batch           ...       62
Average number of grid points per atom       ...     1249
UseSFitting                                  ... on

GRIDX 3
-------
General Integration Accuracy     IntAcc      ... 4.338
Radial Grid Type                 RadialGrid  ... OptM3 with GC (2021)
Angular Grid (max. ang.)         AngularGrid ... 3 (Lebedev-194)
Angular grid pruning method      GridPruning ... 4 (adaptive)
Weight generation scheme         WeightScheme... Becke
Basis function cutoff            BFCut       ... 1.0000e-11
Integration weight cutoff        WCut        ... 1.0000e-14
Angular grids for H and He will be reduced by one unit
Partially contracted basis set               ... on
Rotationally invariant grid construction     ... off

Total number of grid points                  ...    19258
Total number of batches                      ...      304
Average number of points per batch           ...       63
Average number of grid points per atom       ...     2751
UseSFitting                                  ... on

Time for X-Grid setup             =    0.073 sec

--------------
SCF ITERATIONS
--------------
ITER       Energy         Delta-E        Max-DP      RMS-DP      [F,P]     Damp
               ***  Starting incremental Fock matrix formation  ***
  0   -153.6699579227   0.000000000000 0.10552510  0.00256769  0.2940565 0.7000
  1   -153.7384432275  -0.068485304827 0.08941261  0.00191577  0.1095043 0.7000
                               ***Turning on DIIS***
  2   -153.7603711509  -0.021927923412 0.08211999  0.00245850  0.0427327 0.0000
  3   -153.8001336554  -0.039762504546 0.08555120  0.00159440  0.0550141 0.0000
  4   -153.8073180787  -0.007184423250 0.02173928  0.00046352  0.0219204 0.0000
                      *** Initiating the SOSCF procedure ***
                           *** Shutting down DIIS ***
                      *** Re-Reading the Fockian *** 
                      *** Removing any level shift *** 
ITER      Energy       Delta-E        Grad      Rot      Max-DP    RMS-DP
  5   -153.80825923  -0.0009411541  0.000699  0.000699  0.008194  0.000171
               *** Restarting incremental Fock matrix formation ***
  6   -153.80826555  -0.0000063216  0.000267  0.000868  0.005444  0.000114
  7   -153.80826634  -0.0000007879  0.000398  0.000510  0.002469  0.000051
  8   -153.80826753  -0.0000011895  0.000194  0.000309  0.002132  0.000042
  9   -153.80826769  -0.0000001543  0.000084  0.000067  0.000143  0.000004
 10   -153.80826789  -0.0000002001  0.000022  0.000064  0.000443  0.000009
 11   -153.80826790  -0.0000000097  0.000005  0.000015  0.000108  0.000002
                  ***Gradient check signals convergence***
              ***Rediagonalizing the Fockian in SOSCF/NRSCF***

               *****************************************************
               *                     SUCCESS                       *
               *           SCF CONVERGED AFTER  12 CYCLES          *
               *****************************************************

Old exchange energy                            =     -3.992303022 Eh
New exchange energy                            =     -3.992306029 Eh
Exchange energy change after final integration =     -0.000003007 Eh
Total energy after final integration           =   -153.808270904 Eh
Final COS-X integration done in                =     0.251 sec

----------------
TOTAL SCF ENERGY
----------------

Total Energy       :         -153.80827090 Eh           -4185.33583 eV

Components:
Nuclear Repulsion  :           69.63120344 Eh            1894.76137 eV
Electronic Energy  :         -223.43947435 Eh           -6080.09720 eV
One Electron Energy:         -346.03465402 Eh           -9416.08164 eV
Two Electron Energy:          122.59517967 Eh            3335.98444 eV
Max COSX asymmetry :            0.00000063 Eh               0.00002 eV

Virial components:
Potential Energy   :         -306.91430395 Eh           -8351.56280 eV
Kinetic Energy     :          153.10603305 Eh            4166.22697 eV
Virial Ratio       :            2.00458661


DFT components:
N(Alpha)           :       11.999999383927 electrons
N(Beta)            :       11.999999383927 electrons
N(Total)           :       23.999998767855 electrons
E(X)               :      -15.881219772862 Eh       
E(C)               :       -0.942772341935 Eh       
E(XC)              :      -16.823992114798 Eh       
DFET-embed. en.    :        0.000000000000 Eh       

---------------
SCF CONVERGENCE
---------------

  Last Energy change         ...   -1.5772e-09  Tolerance :   1.0000e-08
  Last MAX-Density change    ...    6.6613e-16  Tolerance :   1.0000e-07
  Last RMS-Density change    ...    2.0461e-17  Tolerance :   5.0000e-09
  Last Orbital Gradient      ...    1.3048e-06  Tolerance :   1.0000e-05
  Last Orbital Rotation      ...    1.7748e-06  Tolerance :   1.0000e-05

             **** THE GBW FILE WAS UPDATED (acetaldehyde_QRC.gbw) ****
             **** DENSITY acetaldehyde_QRC.scfp WAS UPDATED ****
             **** ENERGY FILE WAS UPDATED (acetaldehyde_QRC.en.tmp) ****
             **** THE GBW FILE WAS UPDATED (acetaldehyde_QRC.gbw) ****
             **** DENSITY acetaldehyde_QRC.scfp WAS UPDATED ****
----------------
ORBITAL ENERGIES
----------------

  NO   OCC          E(Eh)            E(eV) 
   0   2.0000     -19.128366      -520.5093 
   1   2.0000     -10.267051      -279.3807 
   2   2.0000     -10.185916      -277.1729 
   3   2.0000      -1.055142       -28.7119 
   4   2.0000      -0.753910       -20.5149 
   5   2.0000      -0.584224       -15.8975 
   6   2.0000      -0.483058       -13.1447 
   7   2.0000      -0.449233       -12.2242 
   8   2.0000      -0.442185       -12.0325 
   9   2.0000      -0.402860       -10.9624 
  10   2.0000      -0.369725       -10.0607 
  11   2.0000      -0.264236        -7.1902 
  12   0.0000      -0.039448        -1.0734 
  13   0.0000       0.043237         1.1765 
  14   0.0000       0.066879         1.8199 
  15   0.0000       0.107136         2.9153 
  16   0.0000       0.114074         3.1041 
  17   0.0000       0.140874         3.8334 
  18   0.0000       0.160896         4.3782 
  19   0.0000       0.205229         5.5846 
  20   0.0000       0.212804         5.7907 
  21   0.0000       0.244909         6.6643 
  22   0.0000       0.279188         7.5971 
  23   0.0000       0.314044         8.5456 
  24   0.0000       0.379364        10.3230 
  25   0.0000       0.388747        10.5783 
  26   0.0000       0.395044        10.7497 
  27   0.0000       0.423583        11.5263 
  28   0.0000       0.433052        11.7839 
  29   0.0000       0.463826        12.6213 
  30   0.0000       0.512930        13.9575 
  31   0.0000       0.523351        14.2411 
  32   0.0000       0.537754        14.6330 
  33   0.0000       0.590562        16.0700 
  34   0.0000       0.630774        17.1642 
  35   0.0000       0.744768        20.2662 
  36   0.0000       0.790381        21.5074 
  37   0.0000       0.853852        23.2345 
  38   0.0000       0.878753        23.9121 
  39   0.0000       0.914593        24.8873 
  40   0.0000       0.955767        26.0077 
  41   0.0000       1.042621        28.3712 
  42   0.0000       1.063116        28.9288 
  43   0.0000       1.118394        30.4330 
  44   0.0000       1.211979        32.9796 
  45   0.0000       1.369075        37.2544 
  46   0.0000       1.384222        37.6666 
  47   0.0000       1.473786        40.1037 
  48   0.0000       1.483958        40.3805 
  49   0.0000       1.500285        40.8248 
  50   0.0000       1.518726        41.3266 
  51   0.0000       1.526970        41.5510 
  52   0.0000       1.553952        42.2852 
  53   0.0000       1.632351        44.4185 
  54   0.0000       1.676982        45.6330 
  55   0.0000       1.807579        49.1867 
  56   0.0000       1.848396        50.2974 
  57   0.0000       1.895727        51.5853 
  58   0.0000       1.911206        52.0066 
  59   0.0000       1.962417        53.4001 
  60   0.0000       2.030958        55.2652 
  61   0.0000       2.094964        57.0069 
  62   0.0000       2.165876        58.9365 
  63   0.0000       2.217337        60.3368 
  64   0.0000       2.264493        61.6200 
  65   0.0000       2.303462        62.6804 
  66   0.0000       2.332707        63.4762 
  67   0.0000       2.377037        64.6825 
  68   0.0000       2.487438        67.6866 
  69   0.0000       2.510604        68.3170 
  70   0.0000       2.543039        69.1996 
  71   0.0000       2.660040        72.3834 
  72   0.0000       2.680085        72.9288 
  73   0.0000       2.720743        74.0352 
  74   0.0000       2.782108        75.7050 
  75   0.0000       2.856293        77.7237 
  76   0.0000       2.891814        78.6903 
  77   0.0000       2.910306        79.1934 
  78   0.0000       2.930927        79.7546 
  79   0.0000       2.979977        81.0893 
  80   0.0000       3.039985        82.7222 
  81   0.0000       3.072508        83.6072 
  82   0.0000       3.107914        84.5706 
  83   0.0000       3.147559        85.6494 
  84   0.0000       3.175865        86.4197 
  85   0.0000       3.253746        88.5389 
  86   0.0000       3.331196        90.6464 
  87   0.0000       3.386751        92.1582 
  88   0.0000       3.444855        93.7393 
  89   0.0000       3.492114        95.0252 
  90   0.0000       3.645061        99.1872 
  91   0.0000       3.749918       102.0404 
  92   0.0000       3.807704       103.6129 
  93   0.0000       3.840640       104.5091 
  94   0.0000       3.881227       105.6136 
  95   0.0000       3.952961       107.5655 
  96   0.0000       4.095193       111.4359 
  97   0.0000       4.250917       115.6733 
  98   0.0000       4.307314       117.2080 
  99   0.0000       4.410150       120.0063 
 100   0.0000       4.529795       123.2620 
 101   0.0000       4.656793       126.7178 
 102   0.0000       5.176589       140.8622 
 103   0.0000       5.182071       141.0113 
 104   0.0000       5.543579       150.8485 
 105   0.0000       5.646249       153.6422 
 106   0.0000       6.074822       165.3043 
 107   0.0000       6.306112       171.5980 
 108   0.0000       6.328185       172.1987 
 109   0.0000       6.359878       173.0611 
 110   0.0000       6.428184       174.9198 
 111   0.0000       6.774888       184.3541 
 112   0.0000       6.893936       187.5935 
 113   0.0000       7.033083       191.3799 
 114   0.0000      22.208252       604.3172 
 115   0.0000      22.652833       616.4149 
 116   0.0000      43.644807      1187.6356 

                    ********************************
                    * MULLIKEN POPULATION ANALYSIS *
                    ********************************

-----------------------
MULLIKEN ATOMIC CHARGES
-----------------------
   0 H :    0.066654
   1 C :    0.115492
   2 C :   -0.274331
   3 O :   -0.267084
   4 H :    0.101384
   5 H :    0.128355
   6 H :    0.129531
Sum of atomic charges:    0.0000000

--------------------------------
MULLIKEN REDUCED ORBITAL CHARGES
--------------------------------
  0 H s       :     0.913717  s :     0.913717
      pz      :     0.002478  p :     0.019628
      px      :     0.002959
      py      :     0.014191
  1 C s       :     3.245140  s :     3.245140
      pz      :     0.705575  p :     2.459062
      px      :     0.831412
      py      :     0.922075
      dz2     :     0.006654  d :     0.165349
      dxz     :     0.033530
      dyz     :     0.009609
      dx2y2   :     0.079022
      dxy     :     0.036535
      f0      :     0.001865  f :     0.014957
      f+1     :     0.001115
      f-1     :     0.000690
      f+2     :     0.000398
      f-2     :     0.002563
      f+3     :     0.005101
      f-3     :     0.003224
  2 C s       :     3.220337  s :     3.220337
      pz      :     1.053035  p :     3.015350
      px      :     0.934145
      py      :     1.028169
      dz2     :     0.005142  d :     0.035336
      dxz     :     0.006882
      dyz     :     0.004000
      dx2y2   :     0.007221
      dxy     :     0.012091
      f0      :     0.000279  f :     0.003309
      f+1     :     0.000085
      f-1     :     0.000982
      f+2     :     0.000202
      f-2     :     0.000091
      f+3     :     0.000860
      f-3     :     0.000810
  3 O s       :     3.816784  s :     3.816784
      pz      :     1.288506  p :     4.418569
      px      :     1.497454
      py      :     1.632609
      dz2     :     0.002403  d :     0.029966
      dxz     :     0.007863
      dyz     :     0.003829
      dx2y2   :     0.008350
      dxy     :     0.007521
      f0      :     0.000157  f :     0.001766
      f+1     :     0.000088
      f-1     :     0.000051
      f+2     :     0.000060
      f-2     :     0.000434
      f+3     :     0.000564
      f-3     :     0.000413
  4 H s       :     0.877303  s :     0.877303
      pz      :     0.004320  p :     0.021313
      px      :     0.008883
      py      :     0.008110
  5 H s       :     0.850319  s :     0.850319
      pz      :     0.008600  p :     0.021326
      px      :     0.004094
      py      :     0.008632
  6 H s       :     0.848926  s :     0.848926
      pz      :     0.010502  p :     0.021544
      px      :     0.004672
      py      :     0.006370


                     *******************************
                     * LOEWDIN POPULATION ANALYSIS *
                     *******************************

----------------------
LOEWDIN ATOMIC CHARGES
----------------------
   0 H :    0.103247
   1 C :   -0.318539
   2 C :   -0.299924
   3 O :    0.113410
   4 H :    0.122324
   5 H :    0.137124
   6 H :    0.142359

-------------------------------
LOEWDIN REDUCED ORBITAL CHARGES
-------------------------------
  0 H s       :     0.841945  s :     0.841945
      pz      :     0.007310  p :     0.054809
      px      :     0.008473
      py      :     0.039025
  1 C s       :     2.849805  s :     2.849805
      pz      :     0.693055  p :     2.724555
      px      :     1.027098
      py      :     1.004402
      dz2     :     0.039635  d :     0.650264
      dxz     :     0.105956
      dyz     :     0.022559
      dx2y2   :     0.309927
      dxy     :     0.172187
      f0      :     0.006855  f :     0.093916
      f+1     :     0.007999
      f-1     :     0.004971
      f+2     :     0.002356
      f-2     :     0.015733
      f+3     :     0.037777
      f-3     :     0.018225
  2 C s       :     2.853788  s :     2.853788
      pz      :     1.073603  p :     3.200681
      px      :     1.056548
      py      :     1.070529
      dz2     :     0.037791  d :     0.221740
      dxz     :     0.028552
      dyz     :     0.039935
      dx2y2   :     0.042310
      dxy     :     0.073152
      f0      :     0.001801  f :     0.023714
      f+1     :     0.003364
      f-1     :     0.003281
      f+2     :     0.003999
      f-2     :     0.001176
      f+3     :     0.005682
      f-3     :     0.004411
  3 O s       :     3.412225  s :     3.412225
      pz      :     1.222071  p :     4.397110
      px      :     1.558378
      py      :     1.616661
      dz2     :     0.007921  d :     0.070969
      dxz     :     0.008704
      dyz     :     0.004346
      dx2y2   :     0.025336
      dxy     :     0.024661
      f0      :     0.000365  f :     0.006286
      f+1     :     0.000669
      f-1     :     0.000409
      f+2     :     0.000099
      f-2     :     0.000663
      f+3     :     0.002229
      f-3     :     0.001852
  4 H s       :     0.817856  s :     0.817856
      pz      :     0.013181  p :     0.059821
      px      :     0.022488
      py      :     0.024151
  5 H s       :     0.802866  s :     0.802866
      pz      :     0.024457  p :     0.060011
      px      :     0.011680
      py      :     0.023874
  6 H s       :     0.797875  s :     0.797875
      pz      :     0.029491  p :     0.059766
      px      :     0.012715
      py      :     0.017560


                      *****************************
                      * MAYER POPULATION ANALYSIS *
                      *****************************

  NA   - Mulliken gross atomic population
  ZA   - Total nuclear charge
  QA   - Mulliken gross atomic charge
  VA   - Mayer's total valence
  BVA  - Mayer's bonded valence
  FA   - Mayer's free valence

  ATOM       NA         ZA         QA         VA         BVA        FA
  0 H      0.9333     1.0000     0.0667     0.9555     0.9555     0.0000
  1 C      5.8845     6.0000     0.1155     4.0181     4.0181     0.0000
  2 C      6.2743     6.0000    -0.2743     3.6815     3.6815     0.0000
  3 O      8.2671     8.0000    -0.2671     2.1444     2.1444     0.0000
  4 H      0.8986     1.0000     0.1014     0.9852     0.9852     0.0000
  5 H      0.8716     1.0000     0.1284     0.9889     0.9889     0.0000
  6 H      0.8705     1.0000     0.1295     0.9795     0.9795     0.0000

  Mayer bond orders larger than 0.100000
B(  0-H ,  1-C ) :   0.9566 B(  1-C ,  2-C ) :   0.9251 B(  1-C ,  3-O ) :   2.1077 
B(  2-C ,  4-H ) :   0.9589 B(  2-C ,  5-H ) :   0.9532 B(  2-C ,  6-H ) :   0.9437 


-------
TIMINGS
-------

Total SCF time: 0 days 0 hours 0 min 2 sec 

Total time                  ....       2.680 sec
Sum of individual times     ....       2.582 sec  ( 96.3%)

Fock matrix formation       ....       2.323 sec  ( 86.7%)
  Split-RI-J                ....       0.249 sec  ( 10.7% of F)
  Chain of spheres X        ....       1.632 sec  ( 70.3% of F)
  XC integration            ....       0.410 sec  ( 17.6% of F)
    Basis function eval.    ....       0.124 sec  ( 30.2% of XC)
    Density eval.           ....       0.070 sec  ( 17.1% of XC)
    XC-Functional eval.     ....       0.036 sec  (  8.9% of XC)
    XC-Potential eval.      ....       0.122 sec  ( 29.8% of XC)
Diagonalization             ....       0.016 sec  (  0.6%)
Density matrix formation    ....       0.002 sec  (  0.1%)
Population analysis         ....       0.003 sec  (  0.1%)
Initial guess               ....       0.019 sec  (  0.7%)
Orbital Transformation      ....       0.000 sec  (  0.0%)
Orbital Orthonormalization  ....       0.000 sec  (  0.0%)
DIIS solution               ....       0.013 sec  (  0.5%)
SOSCF solution              ....       0.015 sec  (  0.6%)
Grid generation             ....       0.191 sec  (  7.1%)

Maximum memory used throughout the entire SCF-calculation: 61.0 MB


-------------------------------------------------------------------------------
                          DFT DISPERSION CORRECTION                            
                                                                               
                              DFTD3 V3.1  Rev 1                                
                          USING Becke-Johnson damping                          
-------------------------------------------------------------------------------
The B3LYP functional is recognized
Active option DFTDOPT                   ...         4   

molecular C6(AA) [au] = 395.116770 


            DFT-D V3
 parameters
 s6 scaling factor         :     1.0000 
 a1 scaling factor         :     0.3981 
 s8 scaling factor         :     1.9889 
 a2 scaling factor         :     4.4211 
 ad hoc parameters k1-k3   :    16.0000     1.3333    -4.0000 

 Edisp/kcal,au: -3.376036872765  -0.005380056640 
 E6   /kcal   :  -1.667400465 
 E8   /kcal   :  -1.708636408 
 % E8         :  50.610715241 

-------------------------   ----------------
Dispersion correction           -0.005380057
-------------------------   ----------------


-------------------------   --------------------
FINAL SINGLE POINT ENERGY      -153.813650961087
-------------------------   --------------------



           ************************************************************
           *        Program running with 8 parallel MPI-processes     *
           *              working on a common directory               *
           ************************************************************
------------------------------------------------------------------------------
                         ORCA SCF GRADIENT CALCULATION
------------------------------------------------------------------------------

 ... reading COSX grid (gridx3)
Gradient of the Kohn-Sham DFT energy:
Kohn-Sham wavefunction type      ... RKS
Hartree-Fock exchange scaling    ...    0.200
Number of operators              ...    1
Number of atoms                  ...    7
Basis set dimensions             ...  117
Integral neglect threshold       ... 2.5e-11
Integral primitive cutoff        ... 2.5e-12
SHARK Integral package           ... ON

Nuc. rep. gradient       (SHARK) ... done (  0.0 sec)
HCore & Overlap gradient (SHARK) ... done (  0.0 sec)
RI-J gradient            (SHARK) ... done (  0.1 sec)
COSX-gradient                    ... done (  0.3 sec)
Exchange-correlation gradient    ... done
Dispersion correction            ... done

------------------
CARTESIAN GRADIENT
------------------

   1   H   :    0.000265873    0.002385058    0.000008404
   2   C   :   -0.000917370   -0.000312852    0.000740690
   3   C   :    0.003944967    0.003403814    0.000128726
   4   O   :    0.001243558   -0.001565861   -0.000598748
   5   H   :   -0.003907041    0.004684100    0.000495667
   6   H   :   -0.000056113   -0.004923288    0.005653899
   7   H   :   -0.000568443   -0.003622186   -0.006468632

Difference to translation invariance:
           :    0.0000054320    0.0000487845   -0.0000399943

Difference to rotation invariance:
           :   -0.0000541299   -0.0003224276    0.0000305013

Norm of the cartesian gradient     ...    0.0137009473
RMS gradient                       ...    0.0029897918
MAX gradient                       ...    0.0064686321

-------
TIMINGS
-------

Total SCF gradient time            ...        0.642 sec

One electron gradient       ....       0.007 sec  (  1.1%)
RI-J Coulomb gradient       ....       0.081 sec  ( 12.7%)
COSX gradient               ....       0.297 sec  ( 46.3%)
XC gradient                 ....       0.114 sec  ( 17.7%)

Maximum memory used throughout the entire SCFGRAD-calculation: 35.9 MB
------------------------------------------------------------------------------
                         ORCA GEOMETRY RELAXATION STEP
------------------------------------------------------------------------------

Reading the OPT-File                    .... done
Getting information on internals        .... done
Copying old internal coords+grads       .... done
Making the new internal coordinates     .... (new redundants).... done
Validating the new internal coordinates .... (new redundants).... done
Calculating the B-matrix                .... done
Calculating the G,G- and P matrices     .... done
Transforming gradient to internals      .... done
Projecting the internal gradient        .... done
Number of atoms                         ....   7
Number of internal coordinates          ....  21
Current Energy                          ....  -153.813650961 Eh
Current gradient norm                   ....     0.013700947 Eh/bohr
Maximum allowed component of the step   ....  0.300
Current trust radius                    ....  0.300
Evaluating the initial hessian          ....  (Almloef) done
Projecting the Hessian                  .... done
Forming the augmented Hessian           .... done
Diagonalizing the augmented Hessian     .... done
Last element of RFO vector              ....  0.997113220
Lowest eigenvalues of augmented Hessian:
 -0.000517532  0.012130697  0.012179230  0.130735586  0.139533339
Length of the computed step             ....  0.076148914
The final length of the internal step   ....  0.076148914
Converting the step to cartesian space:
 Initial RMS(Int)=    0.0166170554
Transforming coordinates:
 Iter   0:  RMS(Cart)=    0.0142436170 RMS(Int)=    0.0166586908
 Iter   1:  RMS(Cart)=    0.0001339925 RMS(Int)=    0.0001466390
 Iter   2:  RMS(Cart)=    0.0000027726 RMS(Int)=    0.0000035411
 Iter   3:  RMS(Cart)=    0.0000000688 RMS(Int)=    0.0000000792
done
Storing new coordinates                 .... done

                                .--------------------.
          ----------------------|Geometry convergence|-------------------------
          Item                value                   Tolerance       Converged
          ---------------------------------------------------------------------
          RMS gradient        0.0027724378            0.0001000000      NO
          MAX gradient        0.0074860540            0.0003000000      NO
          RMS step            0.0166170554            0.0020000000      NO
          MAX step            0.0378363188            0.0040000000      NO
          ........................................................
          Max(Bonds)      0.0115      Max(Angles)    0.15
          Max(Dihed)        2.17      Max(Improp)    0.00
          ---------------------------------------------------------------------

The optimization has not yet converged - more geometry cycles are needed


    ---------------------------------------------------------------------------
                         Redundant Internal Coordinates
                            (Angstroem and degrees)

        Definition                    Value    dE/dq     Step     New-Value
    ----------------------------------------------------------------------------
     1. B(C   1,H   0)                1.1149  0.002380 -0.0038    1.1111   
     2. B(C   2,C   1)                1.5085  0.000721 -0.0009    1.5076   
     3. B(O   3,C   1)                1.2043  0.001899 -0.0009    1.2034   
     4. B(H   4,C   2)                1.0992  0.006101 -0.0093    1.0900   
     5. B(H   5,C   2)                1.1027  0.007486 -0.0115    1.0912   
     6. B(H   6,C   2)                1.1059  0.007382 -0.0115    1.0944   
     7. A(C   2,C   1,O   3)          123.48 -0.000852    0.13    123.61   
     8. A(H   0,C   1,O   3)          120.22  0.000361   -0.04    120.19   
     9. A(H   0,C   1,C   2)          116.29  0.000486   -0.06    116.22   
    10. A(H   4,C   2,H   5)          110.55  0.000546   -0.12    110.43   
    11. A(C   1,C   2,H   5)          109.60 -0.000688    0.13    109.74   
    12. A(C   1,C   2,H   6)          108.21 -0.000792    0.15    108.36   
    13. A(H   5,C   2,H   6)          107.47  0.000499   -0.06    107.41   
    14. A(H   4,C   2,H   6)          108.88  0.000584   -0.13    108.75   
    15. A(C   1,C   2,H   4)          112.00 -0.000140    0.02    112.02   
    16. D(H   4,C   2,C   1,O   3)    168.60  0.000466   -2.12    166.48   
    17. D(H   5,C   2,C   1,H   0)   -135.53  0.000021   -0.57   -136.10   
    18. D(H   5,C   2,C   1,O   3)     45.53  0.000355   -2.08     43.45   
    19. D(H   6,C   2,C   1,H   0)    107.56  0.000251   -0.66    106.90   
    20. D(H   6,C   2,C   1,O   3)    -71.38  0.000585   -2.17    -73.55   
    21. D(H   4,C   2,C   1,H   0)    -12.46  0.000132   -0.61    -13.07   
    ----------------------------------------------------------------------------

         *************************************************************
         *                GEOMETRY OPTIMIZATION CYCLE   2            *
         *************************************************************
---------------------------------
CARTESIAN COORDINATES (ANGSTROEM)
---------------------------------
  H      0.335156    1.509943   -0.134074
  C      0.237928    0.407576   -0.034949
  C     -1.167643   -0.135946    0.006859
  O      1.221190   -0.282167    0.040430
  H     -1.905694    0.651117    0.161262
  H     -1.247312   -0.891717    0.789877
  H     -1.374714   -0.630055   -0.947415

----------------------------
CARTESIAN COORDINATES (A.U.)
----------------------------
  NO LB      ZA    FRAG     MASS         X           Y           Z
   0 H     1.0000    0     1.008    0.633353    2.853378   -0.253364
   1 C     6.0000    0    12.011    0.449620    0.770207   -0.066044
   2 C     6.0000    0    12.011   -2.206525   -0.256900    0.012962
   3 O     8.0000    0    15.999    2.307715   -0.533219    0.076401
   4 H     1.0000    0     1.008   -3.601240    1.230433    0.304740
   5 H     1.0000    0     1.008   -2.357078   -1.685100    1.492651
   6 H     1.0000    0     1.008   -2.597834   -1.190631   -1.790354

--------------------------------
INTERNAL COORDINATES (ANGSTROEM)
--------------------------------
 H      0   0   0     0.000000000000     0.00000000     0.00000000
 C      1   0   0     1.111076293814     0.00000000     0.00000000
 C      2   1   0     1.507579190268   116.21626251     0.00000000
 O      2   1   3     1.203424654926   120.18193624   180.43456719
 H      3   2   1     1.089966925044   112.01860959   346.93375051
 H      3   2   1     1.091170454488   109.73569809   223.90287711
 H      3   2   1     1.094376929335   108.36119683   106.90304129

---------------------------
INTERNAL COORDINATES (A.U.)
---------------------------
 H      0   0   0     0.000000000000     0.00000000     0.00000000
 C      1   0   0     2.099629909202     0.00000000     0.00000000
 C      2   1   0     2.848911794806   116.21626251     0.00000000
 O      2   1   3     2.274143020619   120.18193624   180.43456719
 H      3   2   1     2.059738983365   112.01860959   346.93375051
 H      3   2   1     2.062013324408   109.73569809   223.90287711
 H      3   2   1     2.068072683726   108.36119683   106.90304129



           ************************************************************
           *        Program running with 8 parallel MPI-processes     *
           *              working on a common directory               *
           ************************************************************
------------------------------------------------------------------------------
                   ___                                                        
                  /   \      - P O W E R E D   B Y -                         
                 /     \                                                     
                 |  |  |   _    _      __       _____    __    __             
                 |  |  |  | |  | |    /  \     |  _  \  |  |  /  |          
                  \  \/   | |  | |   /    \    | | | |  |  | /  /          
                 / \  \   | |__| |  /  /\  \   | |_| |  |  |/  /          
                |  |  |   |  __  | /  /__\  \  |    /   |      \           
                |  |  |   | |  | | |   __   |  |    \   |  |\   \          
                \     /   | |  | | |  |  |  |  | |\  \  |  | \   \       
                 \___/    |_|  |_| |__|  |__|  |_| \__\ |__|  \__/        
                                                                              
                      - O R C A' S   B I G   F R I E N D -                    
                                      &                                       
                       - I N T E G R A L  F E E D E R -                       
                                                                              
 v1 FN, 2020, v2 2021                                                         
------------------------------------------------------------------------------


Reading SHARK input file acetaldehyde_QRC.SHARKINP.tmp ... ok
----------------------
SHARK INTEGRAL PACKAGE
----------------------

Number of atoms                             ...      7
Number of basis functions                   ...    117
Number of shells                            ...     49
Maximum angular momentum                    ...      3
Integral batch strategy                     ... SHARK/LIBINT Hybrid
RI-J (if used) integral strategy            ... SPLIT-RIJ (Revised 2003 algorithm where possible)
Printlevel                                  ...      1
Contraction scheme used                     ... SEGMENTED contraction
Coulomb Range Separation                    ... NOT USED
Exchange Range Separation                   ... NOT USED
Finite Nucleus Model                        ... NOT USED
Auxiliary Coulomb fitting basis             ... AVAILABLE
   # of basis functions in Aux-J            ...    191
   # of shells in Aux-J                     ...     65
   Maximum angular momentum in Aux-J        ...      4
Auxiliary J/K fitting basis                 ... NOT available
Auxiliary Correlation fitting basis         ... NOT available
Auxiliary 'external' fitting basis          ... NOT available
Integral threshold                          ...     2.500000e-11
Primitive cut-off                           ...     2.500000e-12
Primitive pair pre-selection threshold      ...     2.500000e-12

Calculating pre-screening integrals         ... done (  0.0 sec) Dimension = 49
Organizing shell pair data                  ... done (  0.0 sec)
Shell pair information
Total number of shell pairs                 ...      1225
Shell pairs after pre-screening             ...      1210
Total number of primitive shell pairs       ...      3648
Primitive shell pairs kept                  ...      3073
          la=0 lb=0:    367 shell pairs
          la=1 lb=0:    349 shell pairs
          la=1 lb=1:     91 shell pairs
          la=2 lb=0:    160 shell pairs
          la=2 lb=1:     78 shell pairs
          la=2 lb=2:     21 shell pairs
          la=3 lb=0:     81 shell pairs
          la=3 lb=1:     39 shell pairs
          la=3 lb=2:     18 shell pairs
          la=3 lb=3:      6 shell pairs

Calculating one electron integrals          ... done (  0.0 sec)
Calculating RI/J V-Matrix + Cholesky decomp.... done (  0.0 sec)
Calculating Nuclear repulsion               ... done (  0.0 sec) ENN=     69.792517205882 Eh

SHARK setup successfully completed in   0.1 seconds

Maximum memory used throughout the entire GTOINT-calculation: 13.7 MB


           ************************************************************
           *        Program running with 8 parallel MPI-processes     *
           *              working on a common directory               *
           ************************************************************

Diagonalization of the overlap matrix:
Smallest eigenvalue                        ... 5.596e-04
Time for diagonalization                   ...    0.002 sec
Threshold for overlap eigenvalues          ... 1.000e-08
Number of eigenvalues below threshold      ... 0
Time for construction of square roots      ...    0.001 sec
Total time needed                          ...    0.003 sec

-------------------
DFT GRID GENERATION
-------------------

General Integration Accuracy     IntAcc      ... 4.388
Radial Grid Type                 RadialGrid  ... OptM3 with GC (2021)
Angular Grid (max. ang.)         AngularGrid ... 4 (Lebedev-302)
Angular grid pruning method      GridPruning ... 4 (adaptive)
Weight generation scheme         WeightScheme... Becke
Basis function cutoff            BFCut       ... 1.0000e-11
Integration weight cutoff        WCut        ... 1.0000e-14
Angular grids for H and He will be reduced by one unit
Partially contracted basis set               ... off
Rotationally invariant grid construction     ... off

Total number of grid points                  ...    31326
Total number of batches                      ...      493
Average number of points per batch           ...       63
Average number of grid points per atom       ...     4475
Time for grid setup =    0.102 sec

--------------------
COSX GRID GENERATION
--------------------

GRIDX 1
-------
General Integration Accuracy     IntAcc      ... 3.816
Radial Grid Type                 RadialGrid  ... OptM3 with GC (2021)
Angular Grid (max. ang.)         AngularGrid ... 1 (Lebedev-50)
Angular grid pruning method      GridPruning ... 4 (adaptive)
Weight generation scheme         WeightScheme... Becke
Basis function cutoff            BFCut       ... 1.0000e-11
Integration weight cutoff        WCut        ... 1.0000e-14
Angular grids for H and He will be reduced by one unit
Partially contracted basis set               ... on
Rotationally invariant grid construction     ... off

Total number of grid points                  ...     4037
Total number of batches                      ...       68
Average number of points per batch           ...       59
Average number of grid points per atom       ...      577
UseSFitting                                  ... on

GRIDX 2
-------
General Integration Accuracy     IntAcc      ... 4.020
Radial Grid Type                 RadialGrid  ... OptM3 with GC (2021)
Angular Grid (max. ang.)         AngularGrid ... 2 (Lebedev-110)
Angular grid pruning method      GridPruning ... 4 (adaptive)
Weight generation scheme         WeightScheme... Becke
Basis function cutoff            BFCut       ... 1.0000e-11
Integration weight cutoff        WCut        ... 1.0000e-14
Angular grids for H and He will be reduced by one unit
Partially contracted basis set               ... on
Rotationally invariant grid construction     ... off

Total number of grid points                  ...     8737
Total number of batches                      ...      139
Average number of points per batch           ...       62
Average number of grid points per atom       ...     1248
UseSFitting                                  ... on

GRIDX 3
-------
General Integration Accuracy     IntAcc      ... 4.338
Radial Grid Type                 RadialGrid  ... OptM3 with GC (2021)
Angular Grid (max. ang.)         AngularGrid ... 3 (Lebedev-194)
Angular grid pruning method      GridPruning ... 4 (adaptive)
Weight generation scheme         WeightScheme... Becke
Basis function cutoff            BFCut       ... 1.0000e-11
Integration weight cutoff        WCut        ... 1.0000e-14
Angular grids for H and He will be reduced by one unit
Partially contracted basis set               ... on
Rotationally invariant grid construction     ... off

Total number of grid points                  ...    19257
Total number of batches                      ...      304
Average number of points per batch           ...       63
Average number of grid points per atom       ...     2751
UseSFitting                                  ... on

Time for X-Grid setup             =    0.072 sec

--------------
SCF ITERATIONS
--------------
ITER       Energy         Delta-E        Max-DP      RMS-DP      [F,P]     Damp
               ***  Starting incremental Fock matrix formation  ***
  0   -153.8081431604   0.000000000000 0.00134134  0.00005234  0.0097373 0.7000
                      *** Initiating the SOSCF procedure ***
                      *** Re-Reading the Fockian *** 
                      *** Removing any level shift *** 
ITER      Energy       Delta-E        Grad      Rot      Max-DP    RMS-DP
  1   -153.80824782  -0.0001046628  0.001113  0.001113  0.004039  0.000162
               *** Restarting incremental Fock matrix formation ***
  2   -153.80852003  -0.0002722097  0.000685  0.001789  0.001358  0.000054
  3   -153.80852750  -0.0000074678  0.000558  0.000872  0.000712  0.000031
  4   -153.80853379  -0.0000062887  0.000380  0.000663  0.001324  0.000029
  5   -153.80853323   0.0000005632  0.000376  0.000343  0.000658  0.000016
  6   -153.80853491  -0.0000016873  0.000026  0.000055  0.000037  0.000002
  7   -153.80853493  -0.0000000143  0.000009  0.000009  0.000027  0.000001
                  ***Gradient check signals convergence***
              ***Rediagonalizing the Fockian in SOSCF/NRSCF***

               *****************************************************
               *                     SUCCESS                       *
               *           SCF CONVERGED AFTER   8 CYCLES          *
               *****************************************************

Old exchange energy                            =     -3.995281207 Eh
New exchange energy                            =     -3.995284571 Eh
Exchange energy change after final integration =     -0.000003364 Eh
Total energy after final integration           =   -153.808538295 Eh
Final COS-X integration done in                =     0.250 sec
Total Energy       :         -153.80853830 Eh           -4185.34311 eV
  Last Energy change         ...   -3.2861e-09  Tolerance :   1.0000e-08
  Last MAX-Density change    ...    4.4409e-16  Tolerance :   1.0000e-07
             **** THE GBW FILE WAS UPDATED (acetaldehyde_QRC.gbw) ****
             **** DENSITY acetaldehyde_QRC.scfp WAS UPDATED ****
             **** ENERGY FILE WAS UPDATED (acetaldehyde_QRC.en.tmp) ****
             **** THE GBW FILE WAS UPDATED (acetaldehyde_QRC.gbw) ****
             **** DENSITY acetaldehyde_QRC.scfp WAS UPDATED ****
Total SCF time: 0 days 0 hours 0 min 2 sec 

Maximum memory used throughout the entire SCF-calculation: 61.1 MB


-------------------------------------------------------------------------------
                          DFT DISPERSION CORRECTION                            
                                                                               
                              DFTD3 V3.1  Rev 1                                
                          USING Becke-Johnson damping                          
-------------------------------------------------------------------------------
-------------------------   ----------------
Dispersion correction           -0.005385384
-------------------------   ----------------


-------------------------   --------------------
FINAL SINGLE POINT ENERGY      -153.813923679838
-------------------------   --------------------



           ************************************************************
           *        Program running with 8 parallel MPI-processes     *
           *              working on a common directory               *
           ************************************************************
------------------------------------------------------------------------------
                         ORCA SCF GRADIENT CALCULATION
------------------------------------------------------------------------------

 ... reading COSX grid (gridx3)
Gradient of the Kohn-Sham DFT energy:
Kohn-Sham wavefunction type      ... RKS
Hartree-Fock exchange scaling    ...    0.200
Number of operators              ...    1
Number of atoms                  ...    7
Basis set dimensions             ...  117
Integral neglect threshold       ... 2.5e-11
Integral primitive cutoff        ... 2.5e-12
SHARK Integral package           ... ON

Nuc. rep. gradient       (SHARK) ... done (  0.0 sec)
HCore & Overlap gradient (SHARK) ... done (  0.0 sec)
RI-J gradient            (SHARK) ... done (  0.1 sec)
COSX-gradient                    ... done (  0.3 sec)
Exchange-correlation gradient    ... done
Dispersion correction            ... done

------------------
CARTESIAN GRADIENT
------------------

   1   H   :    0.000040997    0.000279736    0.001290037
   2   C   :    0.000106154   -0.000045826   -0.002453212
   3   C   :   -0.000522599    0.000484877    0.000580306
   4   O   :   -0.000104135   -0.000288054    0.000397156
   5   H   :   -0.000132987    0.000079366   -0.000158591
   6   H   :   -0.000005296   -0.000038267    0.000391438
   7   H   :    0.000597613   -0.000466176   -0.000075001

Difference to translation invariance:
           :   -0.0000202538    0.0000056549   -0.0000278674

Difference to rotation invariance:
           :   -0.0000529371   -0.0003439131   -0.0000849217

Norm of the cartesian gradient     ...    0.0031074436
RMS gradient                       ...    0.0006780998
MAX gradient                       ...    0.0024532122

-------
TIMINGS
-------

Total SCF gradient time            ...        0.643 sec

One electron gradient       ....       0.007 sec  (  1.1%)
RI-J Coulomb gradient       ....       0.080 sec  ( 12.4%)
COSX gradient               ....       0.295 sec  ( 45.9%)
XC gradient                 ....       0.114 sec  ( 17.7%)

Maximum memory used throughout the entire SCFGRAD-calculation: 35.9 MB
------------------------------------------------------------------------------
                         ORCA GEOMETRY RELAXATION STEP
------------------------------------------------------------------------------

Reading the OPT-File                    .... done
Getting information on internals        .... done
Copying old internal coords+grads       .... done
Making the new internal coordinates     .... (new redundants).... done
Validating the new internal coordinates .... (new redundants).... done
Calculating the B-matrix                .... done
Calculating the G,G- and P matrices     .... done
Transforming gradient to internals      .... done
Projecting the internal gradient        .... done
Number of atoms                         ....   7
Number of internal coordinates          ....  21
Current Energy                          ....  -153.813923680 Eh
Current gradient norm                   ....     0.003107444 Eh/bohr
Maximum allowed component of the step   ....  0.300
Current trust radius                    ....  0.300
Updating the Hessian (BFGS)             .... done
Forming the augmented Hessian           .... done
Diagonalizing the augmented Hessian     .... done
Last element of RFO vector              ....  0.991814862
Lowest eigenvalues of augmented Hessian:
 -0.000196524  0.010002832  0.014784747  0.130736091  0.138946411
Length of the computed step             ....  0.128738033
The final length of the internal step   ....  0.128738033
Converting the step to cartesian space:
 Initial RMS(Int)=    0.0280929419
Transforming coordinates:
 Iter   0:  RMS(Cart)=    0.0205181234 RMS(Int)=    0.0280837939
 Iter   1:  RMS(Cart)=    0.0005290762 RMS(Int)=    0.0005854198
 Iter   2:  RMS(Cart)=    0.0000249704 RMS(Int)=    0.0000310323
 Iter   3:  RMS(Cart)=    0.0000010852 RMS(Int)=    0.0000012342
 Iter   4:  RMS(Cart)=    0.0000000551 RMS(Int)=    0.0000000685
done
Storing new coordinates                 .... done

                                .--------------------.
          ----------------------|Geometry convergence|-------------------------
          Item                value                   Tolerance       Converged
          ---------------------------------------------------------------------
          Energy change      -0.0002727188            0.0000050000      NO
          RMS gradient        0.0004101676            0.0001000000      NO
          MAX gradient        0.0009890444            0.0003000000      NO
          RMS step            0.0280929419            0.0020000000      NO
          MAX step            0.0751356329            0.0040000000      NO
          ........................................................
          Max(Bonds)      0.0049      Max(Angles)    0.19
          Max(Dihed)        4.30      Max(Improp)    0.00
          ---------------------------------------------------------------------

The optimization has not yet converged - more geometry cycles are needed


    ---------------------------------------------------------------------------
                         Redundant Internal Coordinates
                            (Angstroem and degrees)

        Definition                    Value    dE/dq     Step     New-Value
    ----------------------------------------------------------------------------
     1. B(C   1,H   0)                1.1111  0.000169 -0.0017    1.1093   
     2. B(C   2,C   1)                1.5076  0.000049 -0.0004    1.5072   
     3. B(O   3,C   1)                1.2034  0.000105 -0.0004    1.2030   
     4. B(H   4,C   2)                1.0900  0.000122 -0.0037    1.0863   
     5. B(H   5,C   2)                1.0912  0.000319 -0.0049    1.0863   
     6. B(H   6,C   2)                1.0944  0.000152 -0.0046    1.0898   
     7. A(C   2,C   1,O   3)          123.60 -0.000501    0.09    123.69   
     8. A(H   0,C   1,O   3)          120.18  0.000216   -0.07    120.11   
     9. A(H   0,C   1,C   2)          116.22  0.000277   -0.10    116.11   
    10. A(H   4,C   2,H   5)          110.43  0.000011   -0.06    110.37   
    11. A(C   1,C   2,H   5)          109.74 -0.000139    0.09    109.83   
    12. A(C   1,C   2,H   6)          108.36 -0.000676    0.19    108.55   
    13. A(H   5,C   2,H   6)          107.41  0.000132    0.00    107.41   
    14. A(H   4,C   2,H   6)          108.75  0.000370   -0.15    108.60   
    15. A(C   1,C   2,H   4)          112.02  0.000288   -0.06    111.95   
    16. D(H   4,C   2,C   1,O   3)    166.48 -0.000238    0.25    166.74   
    17. D(H   5,C   2,C   1,H   0)   -136.10  0.000684   -4.15   -140.24   
    18. D(H   5,C   2,C   1,O   3)     43.45 -0.000352    0.31     43.76   
    19. D(H   6,C   2,C   1,H   0)    106.90  0.000989   -4.30    102.60   
    20. D(H   6,C   2,C   1,O   3)    -73.55 -0.000047    0.15    -73.39   
    21. D(H   4,C   2,C   1,H   0)    -13.07  0.000797   -4.20    -17.27   
    ----------------------------------------------------------------------------

         *************************************************************
[...]
x,y,z [Debye]:    -2.597468     1.059304    -0.002060 

 


           ************************************************************
           *        Program running with 8 parallel MPI-processes     *
           *              working on a common directory               *
           ************************************************************

-------------------------------------------------------------------------------
                               ORCA SCF HESSIAN
-------------------------------------------------------------------------------

Hessian of the Kohn-Sham DFT energy:
Kohn-Sham wavefunction type                      ... RKS
Hartree-Fock exchange scaling                    ...    0.200
Number of operators                              ...    1
Number of atoms                                  ...    7
Basis set dimensions                             ...  117
Integral neglect threshold                       ... 2.5e-11
Integral primitive cutoff                        ... 2.5e-12

Setting up DFT Hessian calculations              ... 

HESS GRID
---------

General Integration Accuracy     IntAcc      ... 4.629
Radial Grid Type                 RadialGrid  ... OptM3 with GC (2021)
Angular Grid (max. ang.)         AngularGrid ... 5 (Lebedev-434)
Angular grid pruning method      GridPruning ... 4 (adaptive)
Weight generation scheme         WeightScheme... Becke
Basis function cutoff            BFCut       ... 1.0000e-11
Integration weight cutoff        WCut        ... 1.0000e-14
Angular grids for H and He will be reduced by one unit
Partially contracted basis set               ... off
Rotationally invariant grid construction     ... off

Total number of grid points                  ...    48894
Total number of batches                      ...      767
Average number of points per batch           ...       63
Average number of grid points per atom       ...     6985

Building densities                               ... done   (      0.0 sec)
Calculating rho(r) on the grid                   ... done   (      0.0 sec)
Building xc-kernel on the grid                   ... done   (      0.0 sec)
                                                     done   (      0.3 sec)

Nuclear repulsion Hessian  (SHARK)               ... done   (      0.0 sec)

----------------------------------------------
Forming right-hand sides of CP-SCF equations     ...
----------------------------------------------
One electron integral derivatives  (SHARK)       ... done   (      0.0 sec)
Transforming the overlap derivative matrices     ... done   (      0.0 sec)
Making the Q(x) pseudodensities                  ... done   (      0.0 sec)
Adding the E*S(x)*S(y) terms to the Hessian      ... done   (      0.0 sec)
Calculating energy weighted overlap derivatives  ... done   (      0.0 sec)
Two electron integral derivatives (SHARK-RI)     ... done   (      1.0 sec)
Exchange-correlation integral derivatives        ... done   (      2.2 sec)
tr(F(y)Q(x)) contribution to the Hessian         ... done   (      0.0 sec)
Response fock operator R(S(x)) (SHARK-RIJCOSX)   ... done   (      0.4 sec)
XC Response fock operator R(S(x))                ... done   (      0.5 sec)
tr(F(y)S(x)) contribution to the Hessian         ... done   (      0.0 sec)
Transforming and finalizing RHSs                 ... done   (      0.0 sec)

----------------------------------------------
Solving the CP-SCF equations (RIJCOSX)           ...
----------------------------------------------
     CP-SCF ITERATION   0:   4.1938e-01 (   0.3 sec   0/ 21 done)
     CP-SCF ITERATION   1:   4.5721e-02 (   0.3 sec   0/ 21 done)
     CP-SCF ITERATION   2:   1.2725e-02 (   0.3 sec   0/ 21 done)
     CP-SCF ITERATION   3:   2.8220e-03 (   0.3 sec   0/ 21 done)
     CP-SCF ITERATION   4:   8.1312e-04 (   0.3 sec   1/ 21 done)
     CP-SCF ITERATION   5:   2.1276e-04 (   0.3 sec  10/ 21 done)
     CP-SCF ITERATION   6:   5.4715e-05 (   0.2 sec  21/ 21 done)
                    *** THE CP-SCF HAS CONVERGED ***

                                                 ... done   (      2.0 sec)
Forming perturbed density Hessian contributions  ... done   (      0.0 sec)
2nd integral derivative contribs (SHARK-RI)      ... done   (      4.3 sec)
Exchange-correlation Hessian                     ... done   (      1.1 sec)
Dispersion correction in the Hessian             ... done   (      0.2 sec)
Dipole derivatives                               ... done   (      0.1 sec)

Total SCF Hessian time: 0 days 0 hours 0 min 12 sec 

Writing the Hessian file to the disk             ... done


Maximum memory used throughout the entire SCFHESS-calculation: 77.9 MB

-----------------------
VIBRATIONAL FREQUENCIES
-----------------------

Scaling factor for frequencies =  1.000000000  (already applied!)

   0:         0.00 cm**-1
   1:         0.00 cm**-1
   2:         0.00 cm**-1
   3:         0.00 cm**-1
   4:         0.00 cm**-1
   5:         0.00 cm**-1
   6:       158.97 cm**-1
   7:       511.43 cm**-1
   8:       775.55 cm**-1
   9:       888.08 cm**-1
  10:      1130.95 cm**-1
  11:      1136.76 cm**-1
  12:      1378.78 cm**-1
  13:      1423.94 cm**-1
  14:      1459.40 cm**-1
  15:      1468.82 cm**-1
  16:      1811.94 cm**-1
  17:      2862.13 cm**-1
  18:      3023.39 cm**-1
  19:      3075.57 cm**-1
  20:      3135.90 cm**-1


------------
NORMAL MODES
------------

These modes are the Cartesian displacements weighted by the diagonal matrix
M(i,i)=1/sqrt(m[i]) where m[i] is the mass of the displaced atom
Thus, these vectors are normalized but *not* orthogonal

                  0          1          2          3          4          5    
      0       0.000000   0.000000   0.000000   0.000000   0.000000   0.000000
      1       0.000000   0.000000   0.000000   0.000000   0.000000   0.000000
      2       0.000000   0.000000   0.000000   0.000000   0.000000   0.000000
      3       0.000000   0.000000   0.000000   0.000000   0.000000   0.000000
      4       0.000000   0.000000   0.000000   0.000000   0.000000   0.000000
      5       0.000000   0.000000   0.000000   0.000000   0.000000   0.000000
      6       0.000000   0.000000   0.000000   0.000000   0.000000   0.000000
      7       0.000000   0.000000   0.000000   0.000000   0.000000   0.000000
      8       0.000000   0.000000   0.000000   0.000000   0.000000   0.000000
      9       0.000000   0.000000   0.000000   0.000000   0.000000   0.000000
     10       0.000000   0.000000   0.000000   0.000000   0.000000   0.000000
     11       0.000000   0.000000   0.000000   0.000000   0.000000   0.000000
     12       0.000000   0.000000   0.000000   0.000000   0.000000   0.000000
     13       0.000000   0.000000   0.000000   0.000000   0.000000   0.000000
     14       0.000000   0.000000   0.000000   0.000000   0.000000   0.000000
     15       0.000000   0.000000   0.000000   0.000000   0.000000   0.000000
     16       0.000000   0.000000   0.000000   0.000000   0.000000   0.000000
     17       0.000000   0.000000   0.000000   0.000000   0.000000   0.000000
     18       0.000000   0.000000   0.000000   0.000000   0.000000   0.000000
     19       0.000000   0.000000   0.000000   0.000000   0.000000   0.000000
     20       0.000000   0.000000   0.000000   0.000000   0.000000   0.000000
                  6          7          8          9         10         11    
      0      -0.058158   0.234975   0.114024  -0.392231  -0.106375   0.128878
      1       0.166829   0.170103  -0.323233  -0.076851  -0.196451  -0.358879
      2       0.266297  -0.055822  -0.515026  -0.047207   0.065635  -0.585382
      3      -0.019547   0.024479  -0.010533  -0.134542  -0.142654  -0.033973
      4       0.056201   0.177285   0.033858  -0.079318  -0.168783   0.120375
      5       0.090321  -0.105513   0.053101   0.022008   0.086270   0.178947
      6       0.000413   0.162531  -0.014537   0.247300   0.033057   0.023488
      7      -0.001472  -0.010273   0.037714   0.002882   0.163554  -0.078635
      8      -0.002090   0.041528   0.059763   0.052178  -0.102548  -0.112587
      9       0.015142  -0.198279   0.005913  -0.101907   0.047388   0.006933
     10      -0.043072  -0.102077  -0.015116   0.019457   0.028624  -0.025813
     11      -0.068950   0.021045  -0.023836  -0.034466  -0.010209  -0.038943
     12      -0.204220  -0.028201  -0.437038   0.446539  -0.070412   0.383783
     13       0.135457  -0.273686  -0.273715   0.322003  -0.143693   0.135285
     14      -0.538200   0.182980  -0.083665  -0.163157   0.219186   0.113462
     15      -0.074979   0.739784   0.053896  -0.229072   0.802150  -0.085184
     16       0.219741   0.029561  -0.140109  -0.023044   0.220385   0.146379
     17       0.357300   0.142802  -0.228434  -0.040828   0.051849   0.250513
     18       0.325013  -0.027820   0.473991   0.448654  -0.071588  -0.412580
     19      -0.490526  -0.295877   0.124156   0.379852  -0.272260  -0.010445
     20      -0.042350   0.158443  -0.139397  -0.085731   0.019326   0.048787
                 12         13         14         15         16         17    
      0       0.231301   0.922992   0.125104  -0.016543  -0.372704   0.125699
      1       0.013113  -0.069793  -0.004234   0.043034  -0.193819   0.847920
      2       0.040387   0.242683   0.032057   0.067025   0.041855  -0.505297
      3       0.007921  -0.058309   0.007749   0.004995   0.566134  -0.014656
      4       0.006907  -0.054869  -0.007496  -0.014019  -0.256387  -0.069659
      5      -0.002284   0.021912   0.005903  -0.023303   0.282819   0.040580
      6      -0.135733   0.042963   0.014877   0.008176  -0.042403  -0.001299
      7      -0.057712  -0.019224   0.047047  -0.028878   0.014508   0.003000
      8       0.007666   0.020999  -0.027389  -0.043640  -0.018320  -0.002166
      9      -0.008635  -0.028491  -0.025122  -0.000025  -0.363851   0.002635
     10       0.010161   0.055740   0.014821   0.001177   0.191962  -0.000981
     11      -0.008294  -0.041119  -0.014722   0.002709  -0.198910   0.001183
     12       0.456951  -0.075383   0.172509  -0.188876  -0.153440   0.016341
     13       0.355985  -0.017841  -0.190371  -0.361541  -0.039956  -0.029539
     14       0.175154  -0.154433   0.563831   0.240347  -0.118900  -0.017375
     15       0.427773  -0.093535  -0.470006  -0.113341   0.250110   0.001163
     16      -0.018282  -0.026136   0.012959   0.371824   0.013955  -0.012722
     17       0.095394  -0.003315  -0.083879   0.607939   0.044069   0.008010
     18       0.543998  -0.119007   0.301522   0.162220  -0.189509   0.005080
     19       0.093294   0.111931  -0.524854   0.439137   0.055155   0.004197
     20      -0.243418   0.056380  -0.022321  -0.160636   0.038394   0.038154
                 18         19         20    
      0       0.009827   0.000229  -0.006128
      1       0.033483   0.000058  -0.029458
      2      -0.018936  -0.000971   0.017232
      3      -0.000871  -0.000231  -0.001370
      4      -0.003639   0.000519   0.003810
      5       0.002087   0.000944  -0.002670
      6       0.050223  -0.015698  -0.017934
      7       0.001254   0.046820   0.075398
      8       0.009358   0.075841  -0.050360
      9      -0.000336  -0.000038   0.000677
     10       0.000369   0.000125  -0.000687
     11      -0.000304   0.000203   0.000572
     12      -0.387030   0.436731   0.166029
     13       0.438252  -0.474068  -0.177505
     14       0.276693  -0.279462  -0.126270
     15      -0.004140  -0.003343  -0.028382
     16      -0.346116   0.006594  -0.782196
     17       0.211924   0.017253   0.475248
     18      -0.201379  -0.243214   0.087749
     19      -0.103054  -0.098655   0.056249
     20      -0.601231  -0.654978   0.256617


-----------
IR SPECTRUM
-----------

 Mode   freq       eps      Int      T**2         TX        TY        TZ
       cm**-1   L/(mol*cm) km/mol    a.u.
----------------------------------------------------------------------------
  6:    158.97   0.000170    0.86  0.000334  (-0.003605  0.009689  0.015065)
  7:    511.43   0.002648   13.38  0.001615  ( 0.031388  0.023747 -0.008145)
  8:    775.55   0.000162    0.82  0.000065  ( 0.001837 -0.004185 -0.006659)
  9:    888.08   0.001928    9.75  0.000678  (-0.023938 -0.010152  0.001235)
 10:   1130.95   0.004998   25.26  0.001379  (-0.030981 -0.019608  0.005901)
 11:   1136.76   0.000061    0.31  0.000017  ( 0.000330  0.002821  0.002933)
 12:   1378.78   0.005025   25.39  0.001137  ( 0.033160  0.004779  0.003865)
 13:   1423.94   0.001975    9.98  0.000433  (-0.016558 -0.011943  0.004000)
 14:   1459.40   0.004300   21.73  0.000919  ( 0.017204 -0.019078  0.016107)
 15:   1468.82   0.002038   10.30  0.000433  (-0.003998  0.011179  0.017091)
 16:   1811.94   0.037148  187.73  0.006398  ( 0.070962 -0.022423  0.029314)
 17:   2862.13   0.024932  126.00  0.002718  (-0.008989 -0.044328  0.025935)
 18:   3023.39   0.000438    2.21  0.000045  ( 0.005102 -0.003145  0.003046)
 19:   3075.57   0.001397    7.06  0.000142  (-0.001969  0.006105  0.010032)
 20:   3135.90   0.001919    9.70  0.000191  ( 0.001197  0.011811 -0.007072)

* The epsilon (eps) is given for a Dirac delta lineshape.
** The dipole moment derivative (T) already includes vibrational overlap.

The first frequency considered to be a vibration is 6
The total number of vibrations considered is 15


--------------------------
THERMOCHEMISTRY AT 298.15K
--------------------------

Temperature         ... 298.15 K
Pressure            ... 1.00 atm
Total Mass          ... 44.05 AMU

Throughout the following assumptions are being made:
  (1) The electronic state is orbitally nondegenerate
  (2) There are no thermally accessible electronically excited states
  (3) Hindered rotations indicated by low frequency modes are not
      treated as such but are treated as vibrations and this may
      cause some error
  (4) All equations used are the standard statistical mechanics
      equations for an ideal gas
  (5) All vibrations are strictly harmonic

freq.     158.97  E(vib)   ...       0.39 
freq.     511.43  E(vib)   ...       0.14 
freq.     775.55  E(vib)   ...       0.05 
freq.     888.08  E(vib)   ...       0.04 
freq.    1130.95  E(vib)   ...       0.01 
freq.    1136.76  E(vib)   ...       0.01 
freq.    1378.78  E(vib)   ...       0.01 
freq.    1423.94  E(vib)   ...       0.00 
freq.    1459.40  E(vib)   ...       0.00 
freq.    1468.82  E(vib)   ...       0.00 
freq.    1811.94  E(vib)   ...       0.00 
freq.    2862.13  E(vib)   ...       0.00 
freq.    3023.39  E(vib)   ...       0.00 
freq.    3075.57  E(vib)   ...       0.00 
freq.    3135.90  E(vib)   ...       0.00 

------------
INNER ENERGY
------------

The inner energy is: U= E(el) + E(ZPE) + E(vib) + E(rot) + E(trans)
    E(el)   - is the total energy from the electronic structure calculation
              = E(kin-el) + E(nuc-el) + E(el-el) + E(nuc-nuc)
    E(ZPE)  - the the zero temperature vibrational energy from the frequency calculation
    E(vib)  - the the finite temperature correction to E(ZPE) due to population
              of excited vibrational states
    E(rot)  - is the rotational thermal energy
    E(trans)- is the translational thermal energy

Summary of contributions to the inner energy U:
Electronic energy                ...   -153.81555184 Eh
Zero point energy                ...      0.05522639 Eh      34.66 kcal/mol
Thermal vibrational correction   ...      0.00105720 Eh       0.66 kcal/mol
Thermal rotational correction    ...      0.00141627 Eh       0.89 kcal/mol
Thermal translational correction ...      0.00141627 Eh       0.89 kcal/mol
-----------------------------------------------------------------------
Total thermal energy                   -153.75643570 Eh


Summary of corrections to the electronic energy:
(perhaps to be used in another calculation)
Total thermal correction                  0.00388974 Eh       2.44 kcal/mol
Non-thermal (ZPE) correction              0.05522639 Eh      34.66 kcal/mol
-----------------------------------------------------------------------
Total correction                          0.05911613 Eh      37.10 kcal/mol


--------
ENTHALPY
--------

The enthalpy is H = U + kB*T
                kB is Boltzmann's constant
Total free energy                 ...   -153.75643570 Eh 
Thermal Enthalpy correction       ...      0.00094421 Eh       0.59 kcal/mol
-----------------------------------------------------------------------
Total Enthalpy                    ...   -153.75549149 Eh


Note: Only C1 symmetry has been detected, increase convergence thresholds 
      if your molecule has a higher symmetry. Symmetry factor of 1.0 is   
      used for the rotational entropy correction. 
 

Note: Rotational entropy computed according to Herzberg 
Infrared and Raman Spectra, Chapter V,1, Van Nostrand Reinhold, 1945 
Point Group:  C1, Symmetry Number:   1  
Rotational constants in cm-1:     1.910995     0.339601     0.304541 

Vibrational entropy computed according to the QRRHO of S. Grimme
Chem.Eur.J. 2012 18 9955


-------
ENTROPY
-------

The entropy contributions are T*S = T*(S(el)+S(vib)+S(rot)+S(trans))
     S(el)   - electronic entropy
     S(vib)  - vibrational entropy
     S(rot)  - rotational entropy
     S(trans)- translational entropy
The entropies will be listed as multiplied by the temperature to get
units of energy

Electronic entropy                ...      0.00000000 Eh      0.00 kcal/mol
Vibrational entropy               ...      0.00176768 Eh      1.11 kcal/mol
Rotational entropy                ...      0.01027621 Eh      6.45 kcal/mol
Translational entropy             ...      0.01771022 Eh     11.11 kcal/mol
-----------------------------------------------------------------------
Final entropy term                ...      0.02975410 Eh     18.67 kcal/mol

In case the symmetry of your molecule has not been determined correctly
or in case you have a reason to use a different symmetry number we print 
out the resulting rotational entropy values for sn=1,12 :
 --------------------------------------------------------
|  sn= 1 | S(rot)=       0.01027621 Eh      6.45 kcal/mol|
|  sn= 2 | S(rot)=       0.00962176 Eh      6.04 kcal/mol|
|  sn= 3 | S(rot)=       0.00923892 Eh      5.80 kcal/mol|
|  sn= 4 | S(rot)=       0.00896730 Eh      5.63 kcal/mol|
|  sn= 5 | S(rot)=       0.00875661 Eh      5.49 kcal/mol|
|  sn= 6 | S(rot)=       0.00858447 Eh      5.39 kcal/mol|
|  sn= 7 | S(rot)=       0.00843892 Eh      5.30 kcal/mol|
|  sn= 8 | S(rot)=       0.00831284 Eh      5.22 kcal/mol|
|  sn= 9 | S(rot)=       0.00820164 Eh      5.15 kcal/mol|
|  sn=10 | S(rot)=       0.00810216 Eh      5.08 kcal/mol|
|  sn=11 | S(rot)=       0.00801217 Eh      5.03 kcal/mol|
|  sn=12 | S(rot)=       0.00793001 Eh      4.98 kcal/mol|
 --------------------------------------------------------


-------------------
GIBBS FREE ENERGY
-------------------

The Gibbs free energy is G = H - T*S

Total enthalpy                    ...   -153.75549149 Eh 
Total entropy correction          ...     -0.02975410 Eh    -18.67 kcal/mol
-----------------------------------------------------------------------
Final Gibbs free energy         ...   -153.78524560 Eh

For completeness - the Gibbs free energy minus the electronic energy
G-E(el)                           ...      0.03030624 Eh     19.02 kcal/mol


Timings for individual modules:

Sum of individual times         ...       65.474 sec (=   1.091 min)
GTO integral calculation        ...        3.772 sec (=   0.063 min)   5.8 %
SCF iterations                  ...       36.890 sec (=   0.615 min)  56.3 %
SCF Gradient evaluation         ...       11.919 sec (=   0.199 min)  18.2 %
Geometry relaxation             ...        0.123 sec (=   0.002 min)   0.2 %
Analytical frequency calculation...       12.770 sec (=   0.213 min)  19.5 %
                             ****ORCA TERMINATED NORMALLY****
TOTAL RUN TIME: 0 days 0 hours 1 minutes 8 seconds 417 msec
