
                                 *****************
                                 * O   R   C   A *
                                 *****************

                                            #,                                       
                                            ###                                      
                                            ####                                     
                                            #####                                    
                                            ######                                   
                                           ########,                                 
                                     ,,################,,,,,                         
                               ,,#################################,,                 
                          ,,##########################################,,             
                       ,#########################################, ''#####,          
                    ,#############################################,,   '####,        
                  ,##################################################,,,,####,       
                ,###########''''           ''''###############################       
              ,#####''   ,,,,##########,,,,          '''####'''          '####       
            ,##' ,,,,###########################,,,                        '##       
           ' ,,###''''                  '''############,,,                           
         ,,##''                                '''############,,,,        ,,,,,,###''
      ,#''                                            '''#######################'''  
     '                                                          ''''####''''         
             ,#######,   #######,   ,#######,      ##                                
            ,#'     '#,  ##    ##  ,#'     '#,    #''#        ######   ,####,        
            ##       ##  ##   ,#'  ##            #'  '#       #        #'  '#        
            ##       ##  #######   ##           ,######,      #####,   #    #        
            '#,     ,#'  ##    ##  '#,     ,#' ,#      #,         ##   #,  ,#        
             '#######'   ##     ##  '#######'  #'      '#     #####' # '####'        



                  #######################################################
                  #                        -***-                        #
                  #          Department of theory and spectroscopy      #
                  #    Directorship and core code : Frank Neese         #
                  #        Max Planck Institute fuer Kohlenforschung    #
                  #                Kaiser Wilhelm Platz 1               #
                  #                 D-45470 Muelheim/Ruhr               #
                  #                      Germany                        #
                  #                                                     #
                  #                  All rights reserved                #
                  #                        -***-                        #
                  #######################################################


                         Program Version 5.0.1 -  RELEASE  -


 With contributions from (in alphabetic order):
   Daniel Aravena         : Magnetic Suceptibility
   Michael Atanasov       : Ab Initio Ligand Field Theory (pilot matlab implementation)
   Alexander A. Auer      : GIAO ZORA, VPT2 properties, NMR spectrum
   Ute Becker             : Parallelization
   Giovanni Bistoni       : ED, misc. LED, open-shell LED, HFLD
   Martin Brehm           : Molecular dynamics
   Dmytro Bykov           : SCF Hessian
   Vijay G. Chilkuri      : MRCI spin determinant printing, contributions to CSF-ICE
   Dipayan Datta          : RHF DLPNO-CCSD density
   Achintya Kumar Dutta   : EOM-CC, STEOM-CC
   Dmitry Ganyushin       : Spin-Orbit,Spin-Spin,Magnetic field MRCI
   Miquel Garcia          : C-PCM and meta-GGA Hessian, CC/C-PCM, Gaussian charge scheme
   Yang Guo               : DLPNO-NEVPT2, F12-NEVPT2, CIM, IAO-localization
   Andreas Hansen         : Spin unrestricted coupled pair/coupled cluster methods
   Benjamin Helmich-Paris : MC-RPA, TRAH-SCF, COSX integrals
   Lee Huntington         : MR-EOM, pCC
   Robert Izsak           : Overlap fitted RIJCOSX, COSX-SCS-MP3, EOM
   Marcus Kettner         : VPT2
   Christian Kollmar      : KDIIS, OOCD, Brueckner-CCSD(T), CCSD density, CASPT2, CASPT2-K
   Simone Kossmann        : Meta GGA functionals, TD-DFT gradient, OOMP2, MP2 Hessian
   Martin Krupicka        : Initial AUTO-CI
   Lucas Lang             : DCDCAS
   Marvin Lechner         : AUTO-CI (C++ implementation), FIC-MRCC
   Dagmar Lenk            : GEPOL surface, SMD
   Dimitrios Liakos       : Extrapolation schemes; Compound Job, initial MDCI parallelization
   Dimitrios Manganas     : Further ROCIS development; embedding schemes
   Dimitrios Pantazis     : SARC Basis sets
   Anastasios Papadopoulos: AUTO-CI, single reference methods and gradients
   Taras Petrenko         : DFT Hessian,TD-DFT gradient, ASA, ECA, R-Raman, ABS, FL, XAS/XES, NRVS
   Peter Pinski           : DLPNO-MP2, DLPNO-MP2 Gradient
   Christoph Reimann      : Effective Core Potentials
   Marius Retegan         : Local ZFS, SOC
   Christoph Riplinger    : Optimizer, TS searches, QM/MM, DLPNO-CCSD(T), (RO)-DLPNO pert. Triples
   Tobias Risthaus        : Range-separated hybrids, TD-DFT gradient, RPA, STAB
   Michael Roemelt        : Original ROCIS implementation
   Masaaki Saitow         : Open-shell DLPNO-CCSD energy and density
   Barbara Sandhoefer     : DKH picture change effects
   Avijit Sen             : IP-ROCIS
   Kantharuban Sivalingam : CASSCF convergence, NEVPT2, FIC-MRCI
   Bernardo de Souza      : ESD, SOC TD-DFT
   Georgi Stoychev        : AutoAux, RI-MP2 NMR, DLPNO-MP2 response
   Willem Van den Heuvel  : Paramagnetic NMR
   Boris Wezisla          : Elementary symmetry handling
   Frank Wennmohs         : Technical directorship


 We gratefully acknowledge several colleagues who have allowed us to
 interface, adapt or use parts of their codes:
   Stefan Grimme, W. Hujo, H. Kruse, P. Pracht,  : VdW corrections, initial TS optimization,
                  C. Bannwarth, S. Ehlert          DFT functionals, gCP, sTDA/sTD-DF
   Ed Valeev, F. Pavosevic, A. Kumar             : LibInt (2-el integral package), F12 methods
   Garnet Chan, S. Sharma, J. Yang, R. Olivares  : DMRG
   Ulf Ekstrom                                   : XCFun DFT Library
   Mihaly Kallay                                 : mrcc  (arbitrary order and MRCC methods)
   Jiri Pittner, Ondrej Demel                    : Mk-CCSD
   Frank Weinhold                                : gennbo (NPA and NBO analysis)
   Christopher J. Cramer and Donald G. Truhlar   : smd solvation model
   Lars Goerigk                                  : TD-DFT with DH, B97 family of functionals
   V. Asgeirsson, H. Jonsson                     : NEB implementation
   FAccTs GmbH                                   : IRC, NEB, NEB-TS, DLPNO-Multilevel, CI-OPT
                                                   MM, QMMM, 2- and 3-layer-ONIOM, Crystal-QMMM,
                                                   LR-CPCM, SF, NACMEs, symmetry and pop. for TD-DFT,
                                                   nearIR, NL-DFT gradient (VV10), updates on ESD,
                                                   ML-optimized integration grids
   S Lehtola, MJT Oliveira, MAL Marques          : LibXC Library
   Liviu Ungur et al                             : ANISO software


 Your calculation uses the libint2 library for the computation of 2-el integrals
 For citations please refer to: http://libint.valeyev.net

 Your ORCA version has been built with support for libXC version: 5.1.0
 For citations please refer to: https://tddft.org/programs/libxc/

 This ORCA versions uses:
   CBLAS   interface :  Fast vector & matrix operations
   LAPACKE interface :  Fast linear algebra routines
   SCALAPACK package :  Parallel linear algebra routines
   Shared memory     :  Shared parallel matrices
   BLAS/LAPACK       :  OpenBLAS 0.3.15  USE64BITINT DYNAMIC_ARCH NO_AFFINITY SkylakeX SINGLE_THREADED
        Core in use  :  SkylakeX
   Copyright (c) 2011-2014, The OpenBLAS Project


================================================================================

----- Orbital basis set information -----
Your calculation utilizes the basis: 6-31G(d)
   H-He, Li-Ne : W. J. Hehre, R. Ditchfield and J.A. Pople, J. Chem. Phys. 56, 2257 (1972).
                 Note: He and Ne are unpublished basis sets taken from the Gaussian program.
                 Note: Li and B from J. D. Dill and J. A. Pople, J. Chem. Phys. 62, 2921 (1975).
   Na - Ar     : M. M. Francl, W. J. Pietro, W. J. Hehre, J. S. Binkley, M. S. Gordon, 
                 D. J. DeFrees and J. A. Pople, J. Chem. Phys. 77, 3654 (1982).
   K - Zn      : V. A. Rassolov, J. A. Pople, M. A. Ratner, and T. L. Windus, J. Chem. Phys. 109, 1223 (1998).

----- AuxJ basis set information -----
Your calculation utilizes the auxiliary basis: def2/J
   F. Weigend, Phys. Chem. Chem. Phys. 8, 1057 (2006).

================================================================================
                                        WARNINGS
                       Please study these warnings very carefully!
================================================================================


WARNING: Geometry Optimization
  ===> : Switching off AutoStart
         For restart on a previous wavefunction, please use MOREAD

INFO   : the flag for use of the SHARK integral package has been found!

================================================================================
                                       INPUT FILE
================================================================================
NAME = claisen_ts.inp
|  1> ! pal8 B3LYP 6-31G(d) OptTs Freq
|  2> * xyz 0 1
|  3> C       -1.466309    0.784167   -0.289984
|  4> C        -1.291057   -0.472056    0.261839
|  5> O        -0.511026   -1.358456   -0.252221
|  6> C         1.285570   -0.900284    0.182034
|  7> C         1.374702    0.412704   -0.301796
|  8> C         0.668678    1.425295    0.322236
|  9> H        -2.145897    1.492397    0.178794
| 10> H        -1.225400    0.953689   -1.332994
| 11> H        -1.676663   -0.646152    1.281812
| 12> H         1.766395   -1.711905   -0.353320
| 13> H         1.173540   -1.069495    1.248816
| 14> H         1.692496    0.557034   -1.332675
| 15> H         0.629026    2.424945   -0.101698
| 16> H         0.445204    1.368175    1.383056
| 17> 
| 18> *
| 19> 
| 20>                          ****END OF INPUT****
================================================================================

                       *****************************
                       * Geometry Optimization Run *
                       *****************************

Geometry optimization settings:
Update method            Update   .... Bofill
Choice of coordinates    CoordSys .... Z-matrix Internals
Initial Hessian          InHess   .... Almoef's Model

Convergence Tolerances:
Energy Change            TolE     ....  5.0000e-06 Eh
Max. Gradient            TolMAXG  ....  3.0000e-04 Eh/bohr
RMS Gradient             TolRMSG  ....  1.0000e-04 Eh/bohr
Max. Displacement        TolMAXD  ....  4.0000e-03 bohr
RMS Displacement         TolRMSD  ....  2.0000e-03 bohr
Strict Convergence                ....  False
------------------------------------------------------------------------------
                        ORCA OPTIMIZATION COORDINATE SETUP
------------------------------------------------------------------------------

The optimization will be done in new redundant internal coordinates
Making redundant internal coordinates   ...  (new redundants) done
Following TS mode number                ...     0
Evaluating the initial hessian          ...  (Almloef) done
Evaluating the coordinates              ...  done
Calculating the B-matrix                .... done
Calculating the G-matrix                .... done
Diagonalizing the G-matrix              .... done
Small eigenvalue found = 1.248e-02
Small eigenvalue found = 2.897e-02
The first mode is                       ....   15
The number of degrees of freedom        ....   36

    -----------------------------------------------------------------
                    Redundant Internal Coordinates


    -----------------------------------------------------------------
         Definition                    Initial Value    Approx d2E/dq
    -----------------------------------------------------------------
      1. B(C   1,C   0)                  1.3832         0.640536   
      2. B(O   2,C   1)                  1.2878         0.814592   
      3. B(C   3,O   2)                  1.9043         0.084603   
      4. B(C   4,C   3)                  1.4021         0.597562   
      5. B(C   5,C   4)                  1.3832         0.640614   
      6. B(H   6,C   0)                  1.0877         0.363100   
      7. B(H   7,C   0)                  1.0838         0.368382   
      8. B(H   8,C   1)                  1.1042         0.341746   
      9. B(H   9,C   3)                  1.0847         0.367210   
     10. B(H  10,C   3)                  1.0859         0.365547   
     11. B(H  11,C   4)                  1.0884         0.362271   
     12. B(H  12,C   5)                  1.0866         0.364692   
     13. B(H  13,C   5)                  1.0856         0.365959   
     14. A(H   6,C   0,H   7)          116.8575         0.292262   
     15. A(C   1,C   0,H   6)          119.9039         0.355362   
     16. A(C   1,C   0,H   7)          119.8552         0.356234   
     17. A(C   0,C   1,H   8)          117.8680         0.351733   
     18. A(C   0,C   1,O   2)          122.8611         0.455732   
     19. A(O   2,C   1,H   8)          118.1456         0.364141   
     20. A(C   1,O   2,C   3)          108.3501         0.319024   
     21. A(O   2,C   3,C   4)          101.9226         0.305226   
     22. A(C   4,C   3,H  10)          119.4368         0.351607   
     23. A(O   2,C   3,H  10)           95.1176         0.256324   
     24. A(C   4,C   3,H   9)          120.1454         0.351877   
     25. A(O   2,C   3,H   9)           97.2175         0.256496   
     26. A(H   9,C   3,H  10)          114.4564         0.292425   
     27. A(C   3,C   4,H  11)          118.0073         0.351073   
     28. A(C   5,C   4,H  11)          118.6387         0.355232   
     29. A(C   3,C   4,C   5)          119.8280         0.433742   
     30. A(H  12,C   5,H  13)          114.9705         0.292160   
     31. A(C   4,C   5,H  13)          120.4912         0.355843   
     32. A(C   4,C   5,H  12)          121.0724         0.355634   
     33. D(H   8,C   1,C   0,H   6)    -13.0179         0.028509   
     34. D(H   8,C   1,C   0,H   7)   -171.6118         0.028509   
     35. D(O   2,C   1,C   0,H   7)     20.7528         0.028509   
     36. D(O   2,C   1,C   0,H   6)    179.3467         0.028509   
     37. D(C   3,O   2,C   1,H   8)    -90.5645         0.051365   
     38. D(C   3,O   2,C   1,C   0)     77.0385         0.051365   
     39. D(H  10,C   3,O   2,C   1)     66.5992         0.001918   
     40. D(H   9,C   3,O   2,C   1)   -177.9130         0.001918   
     41. D(C   4,C   3,O   2,C   1)    -54.9493         0.001918   
     42. D(H  11,C   4,C   3,H   9)     16.1031         0.026728   
     43. D(H  11,C   4,C   3,O   2)    -89.6272         0.026728   
     44. D(C   5,C   4,C   3,H  10)    -34.0154         0.026728   
     45. D(C   5,C   4,C   3,H   9)    174.6492         0.026728   
     46. D(H  11,C   4,C   3,H  10)    167.4385         0.026728   
     47. D(C   5,C   4,C   3,O   2)     68.9189         0.026728   
     48. D(H  13,C   5,C   4,H  11)   -172.2901         0.028517   
     49. D(H  13,C   5,C   4,C   3)     29.2979         0.028517   
     50. D(H  12,C   5,C   4,H  11)    -14.3496         0.028517   
     51. D(H  12,C   5,C   4,C   3)   -172.7616         0.028517   
    -----------------------------------------------------------------

Number of atoms                         .... 14
Number of degrees of freedom            .... 51

         *************************************************************
         *                GEOMETRY OPTIMIZATION CYCLE   1            *
         *************************************************************
---------------------------------
CARTESIAN COORDINATES (ANGSTROEM)
---------------------------------
  C     -1.466309    0.784167   -0.289984
  C     -1.291057   -0.472056    0.261839
  O     -0.511026   -1.358456   -0.252221
  C      1.285570   -0.900284    0.182034
  C      1.374702    0.412704   -0.301796
  C      0.668678    1.425295    0.322236
  H     -2.145897    1.492397    0.178794
  H     -1.225400    0.953689   -1.332994
  H     -1.676663   -0.646152    1.281812
  H      1.766395   -1.711905   -0.353320
  H      1.173540   -1.069495    1.248816
  H      1.692496    0.557034   -1.332675
  H      0.629026    2.424945   -0.101698
  H      0.445204    1.368175    1.383056

----------------------------
CARTESIAN COORDINATES (A.U.)
----------------------------
  NO LB      ZA    FRAG     MASS         X           Y           Z
   0 C     6.0000    0    12.011   -2.770922    1.481861   -0.547990
   1 C     6.0000    0    12.011   -2.439744   -0.892057    0.494804
   2 O     8.0000    0    15.999   -0.965699   -2.567110   -0.476629
   3 C     6.0000    0    12.011    2.429375   -1.701290    0.343994
   4 C     6.0000    0    12.011    2.597810    0.779898   -0.570312
   5 C     6.0000    0    12.011    1.263618    2.693417    0.608938
   6 H     1.0000    0     1.008   -4.055158    2.820222    0.337872
   7 H     1.0000    0     1.008   -2.315670    1.802211   -2.518994
   8 H     1.0000    0     1.008   -3.168434   -1.221050    2.422274
   9 H     1.0000    0     1.008    3.338003   -3.235032   -0.667678
  10 H     1.0000    0     1.008    2.217669   -2.021053    2.359920
  11 H     1.0000    0     1.008    3.198354    1.052642   -2.518391
  12 H     1.0000    0     1.008    1.188687    4.582482   -0.192181
  13 H     1.0000    0     1.008    0.841314    2.585476    2.613597

--------------------------------
INTERNAL COORDINATES (ANGSTROEM)
--------------------------------
 C      0   0   0     0.000000000000     0.00000000     0.00000000
 C      1   0   0     1.383227426189     0.00000000     0.00000000
 O      2   1   0     1.287793075211   122.86114288     0.00000000
 C      3   2   1     1.904273135300   108.35013554    77.03845335
 C      4   3   2     1.402131759311   101.92256988   305.05074026
 C      5   4   3     1.383194259271   119.82804172    68.91892798
 H      1   2   3     1.087741879275   119.90393718   179.34672554
 H      1   2   3     1.083810276231   119.85520129    20.75282229
 H      2   1   3     1.104240157385   117.86802625   167.63541248
 H      4   3   2     1.084677479061    97.21754581   182.08700132
 H      4   3   2     1.085912942618    95.11760175    66.59915903
 H      5   4   3     1.088363766384   118.00731213   270.37279459
 H      6   5   4     1.086550707496   121.07240035   187.23844877
 H      6   5   4     1.085606924939   120.49123912    29.29791554

---------------------------
INTERNAL COORDINATES (A.U.)
---------------------------
 C      0   0   0     0.000000000000     0.00000000     0.00000000
 C      1   0   0     2.613921016426     0.00000000     0.00000000
 O      2   1   0     2.433576229309   122.86114288     0.00000000
 C      3   2   1     3.598554709900   108.35013554    77.03845335
 C      4   3   2     2.649645028771   101.92256988   305.05074026
 C      5   4   3     2.613858340035   119.82804172    68.91892798
 H      1   2   3     2.055534256226   119.90393718   179.34672554
 H      1   2   3     2.048104603207   119.85520129    20.75282229
 H      2   1   3     2.086711483535   117.86802625   167.63541248
 H      4   3   2     2.049743379057    97.21754581   182.08700132
 H      4   3   2     2.052078066828    95.11760175    66.59915903
 H      5   4   3     2.056709452548   118.00731213   270.37279459
 H      6   5   4     2.053283267786   121.07240035   187.23844877
 H      6   5   4     2.051499777224   120.49123912    29.29791554

---------------------
BASIS SET INFORMATION
---------------------
There are 3 groups of distinct atoms

 Group   1 Type C   : 10s4p1d contracted to 3s2p1d pattern {631/31/1}
 Group   2 Type O   : 10s4p1d contracted to 3s2p1d pattern {631/31/1}
 Group   3 Type H   : 4s contracted to 2s pattern {31}

Atom   0C    basis set group =>   1
Atom   1C    basis set group =>   1
Atom   2O    basis set group =>   2
Atom   3C    basis set group =>   1
Atom   4C    basis set group =>   1
Atom   5C    basis set group =>   1
Atom   6H    basis set group =>   3
Atom   7H    basis set group =>   3
Atom   8H    basis set group =>   3
Atom   9H    basis set group =>   3
Atom  10H    basis set group =>   3
Atom  11H    basis set group =>   3
Atom  12H    basis set group =>   3
Atom  13H    basis set group =>   3
---------------------------------
AUXILIARY/J BASIS SET INFORMATION
---------------------------------
There are 3 groups of distinct atoms

 Group   1 Type C   : 12s5p4d2f1g contracted to 6s4p3d1f1g pattern {711111/2111/211/2/1}
 Group   2 Type O   : 12s5p4d2f1g contracted to 6s4p3d1f1g pattern {711111/2111/211/2/1}
 Group   3 Type H   : 5s2p1d contracted to 3s1p1d pattern {311/2/1}

Atom   0C    basis set group =>   1
Atom   1C    basis set group =>   1
Atom   2O    basis set group =>   2
Atom   3C    basis set group =>   1
Atom   4C    basis set group =>   1
Atom   5C    basis set group =>   1
Atom   6H    basis set group =>   3
Atom   7H    basis set group =>   3
Atom   8H    basis set group =>   3
Atom   9H    basis set group =>   3
Atom  10H    basis set group =>   3
Atom  11H    basis set group =>   3
Atom  12H    basis set group =>   3
Atom  13H    basis set group =>   3


           ************************************************************
           *        Program running with 8 parallel MPI-processes     *
           *              working on a common directory               *
           ************************************************************
------------------------------------------------------------------------------
                           ORCA GTO INTEGRAL CALCULATION
                           -- RI-GTO INTEGRALS CHOSEN --
------------------------------------------------------------------------------
------------------------------------------------------------------------------
                   ___                                                        
                  /   \      - P O W E R E D   B Y -                         
                 /     \                                                     
                 |  |  |   _    _      __       _____    __    __             
                 |  |  |  | |  | |    /  \     |  _  \  |  |  /  |          
                  \  \/   | |  | |   /    \    | | | |  |  | /  /          
                 / \  \   | |__| |  /  /\  \   | |_| |  |  |/  /          
                |  |  |   |  __  | /  /__\  \  |    /   |      \           
                |  |  |   | |  | | |   __   |  |    \   |  |\   \          
                \     /   | |  | | |  |  |  |  | |\  \  |  | \   \       
                 \___/    |_|  |_| |__|  |__|  |_| \__\ |__|  \__/        
                                                                              
                      - O R C A' S   B I G   F R I E N D -                    
                                      &                                       
                       - I N T E G R A L  F E E D E R -                       
                                                                              
 v1 FN, 2020, v2 2021                                                         
------------------------------------------------------------------------------


Reading SHARK input file claisen_ts.SHARKINP.tmp ... ok
----------------------
SHARK INTEGRAL PACKAGE
----------------------

Number of atoms                             ...     14
Number of basis functions                   ...    100
Number of shells                            ...     52
Maximum angular momentum                    ...      2
Integral batch strategy                     ... SHARK/LIBINT Hybrid
RI-J (if used) integral strategy            ... SPLIT-RIJ (Revised 2003 algorithm where possible)
Printlevel                                  ...      1
Contraction scheme used                     ... SEGMENTED contraction
Coulomb Range Separation                    ... NOT USED
Exchange Range Separation                   ... NOT USED
Finite Nucleus Model                        ... NOT USED
Auxiliary Coulomb fitting basis             ... AVAILABLE
   # of basis functions in Aux-J            ...    382
   # of shells in Aux-J                     ...    130
   Maximum angular momentum in Aux-J        ...      4
Auxiliary J/K fitting basis                 ... NOT available
Auxiliary Correlation fitting basis         ... NOT available
Auxiliary 'external' fitting basis          ... NOT available
Integral threshold                          ...     2.500000e-11
Primitive cut-off                           ...     2.500000e-12
Primitive pair pre-selection threshold      ...     2.500000e-12

Calculating pre-screening integrals         ... done (  0.0 sec) Dimension = 52
Organizing shell pair data                  ... done (  0.0 sec)
Shell pair information
Total number of shell pairs                 ...      1378
Shell pairs after pre-screening             ...      1361
Total number of primitive shell pairs       ...      7653
Primitive shell pairs kept                  ...      5371
          la=0 lb=0:    578 shell pairs
          la=1 lb=0:    408 shell pairs
          la=1 lb=1:     78 shell pairs
          la=2 lb=0:    204 shell pairs
          la=2 lb=1:     72 shell pairs
          la=2 lb=2:     21 shell pairs

Calculating one electron integrals          ... done (  0.0 sec)
Calculating RI/J V-Matrix + Cholesky decomp.... done (  0.0 sec)
Calculating Nuclear repulsion               ... done (  0.0 sec) ENN=    229.715198749943 Eh

SHARK setup successfully completed in   0.1 seconds

Maximum memory used throughout the entire GTOINT-calculation: 9.7 MB


           ************************************************************
           *        Program running with 8 parallel MPI-processes     *
           *              working on a common directory               *
           ************************************************************
-------------------------------------------------------------------------------
                                 ORCA SCF
-------------------------------------------------------------------------------

------------
SCF SETTINGS
------------
Hamiltonian:
 Density Functional     Method          .... DFT(GTOs)
 Exchange Functional    Exchange        .... B88
   X-Alpha parameter    XAlpha          ....  0.666667
   Becke's b parameter  XBeta           ....  0.004200
 Correlation Functional Correlation     .... LYP
 LDA part of GGA corr.  LDAOpt          .... VWN-5
 Gradients option       PostSCFGGA      .... off
 Hybrid DFT is turned on
   Fraction HF Exchange ScalHFX         ....  0.200000
   Scaling of DF-GGA-X  ScalDFX         ....  0.720000
   Scaling of DF-GGA-C  ScalDFC         ....  0.810000
   Scaling of DF-LDA-C  ScalLDAC        ....  1.000000
   Perturbative correction              ....  0.000000
   Density functional embedding theory  .... OFF
   NL short-range parameter             ....  4.800000
 RI-approximation to the Coulomb term is turned on
   Number of AuxJ basis functions       .... 382
   RIJ-COSX (HFX calculated with COS-X)).... on


General Settings:
 Integral files         IntName         .... claisen_ts
 Hartree-Fock type      HFTyp           .... RHF
 Total Charge           Charge          ....    0
 Multiplicity           Mult            ....    1
 Number of Electrons    NEL             ....   46
 Basis Dimension        Dim             ....  100
 Nuclear Repulsion      ENuc            ....    229.7151987499 Eh

Convergence Acceleration:
 DIIS                   CNVDIIS         .... on
   Start iteration      DIISMaxIt       ....    12
   Startup error        DIISStart       ....  0.200000
   # of expansion vecs  DIISMaxEq       ....     5
   Bias factor          DIISBfac        ....   1.050
   Max. coefficient     DIISMaxC        ....  10.000
 Trust-Rad. Augm. Hess. CNVTRAH         .... auto
   Auto Start mean grad. ratio tolernc. ....  1.125000
   Auto Start start iteration           ....    20
   Auto Start num. interpolation iter.  ....    10
   Max. Number of Micro iterations      ....    16
   Max. Number of Macro iterations      .... Maxiter - #DIIS iter
   Number of Davidson start vectors     ....     2
   Converg. threshold I  (grad. norm)   ....   1.000e-05
   Converg. threshold II (energy diff.) ....   1.000e-08
   Grad. Scal. Fac. for Micro threshold ....   0.100
   Minimum threshold for Micro iter.    ....   0.010
   NR start threshold (gradient norm)   ....   0.001
   Initial trust radius                 ....   0.400
   Minimum AH scaling param. (alpha)    ....   1.000
   Maximum AH scaling param. (alpha)    .... 1000.000
   Orbital update algorithm             .... Taylor
   White noise on init. David. guess    .... on
   Maximum white noise                  ....   0.010
   Quad. conv. algorithm                .... NR
 SOSCF                  CNVSOSCF        .... on
   Start iteration      SOSCFMaxIt      ....   150
   Startup grad/error   SOSCFStart      ....  0.003300
 Level Shifting         CNVShift        .... on
   Level shift para.    LevelShift      ....    0.2500
   Turn off err/grad.   ShiftErr        ....    0.0010
 Zerner damping         CNVZerner       .... off
 Static damping         CNVDamp         .... on
   Fraction old density DampFac         ....    0.7000
   Max. Damping (<1)    DampMax         ....    0.9800
   Min. Damping (>=0)   DampMin         ....    0.0000
   Turn off err/grad.   DampErr         ....    0.1000
 Fernandez-Rico         CNVRico         .... off

SCF Procedure:
 Maximum # iterations   MaxIter         ....   125
 SCF integral mode      SCFMode         .... Direct
   Integral package                     .... SHARK and LIBINT hybrid scheme
 Reset frequency        DirectResetFreq ....    20
 Integral Threshold     Thresh          ....  2.500e-11 Eh
 Primitive CutOff       TCut            ....  2.500e-12 Eh

Convergence Tolerance:
 Convergence Check Mode ConvCheckMode   .... Total+1el-Energy
 Convergence forced     ConvForced      .... 0
 Energy Change          TolE            ....  1.000e-08 Eh
 1-El. energy change                    ....  1.000e-05 Eh
 Orbital Gradient       TolG            ....  1.000e-05
 Orbital Rotation angle TolX            ....  1.000e-05
 DIIS Error             TolErr          ....  5.000e-07


Diagonalization of the overlap matrix:
Smallest eigenvalue                        ... 4.768e-03
Time for diagonalization                   ...    0.002 sec
Threshold for overlap eigenvalues          ... 1.000e-08
Number of eigenvalues below threshold      ... 0
Time for construction of square roots      ...    0.001 sec
Total time needed                          ...    0.003 sec

Time for model grid setup =    0.035 sec

------------------------------
INITIAL GUESS: MODEL POTENTIAL
------------------------------
Loading Hartree-Fock densities                     ... done
Calculating cut-offs                               ... done
Initializing the effective Hamiltonian             ... done
Setting up the integral package (SHARK)            ... done
Starting the Coulomb interaction                   ... done (   0.0 sec)
Reading the grid                                   ... done
Mapping shells                                     ... done
Starting the XC term evaluation                    ... done (   0.0 sec)
  promolecular density results
     # of electrons  =     45.997317426
     EX              =    -36.183877222
     EC              =     -1.511845807
     EX+EC           =    -37.695723029
Transforming the Hamiltonian                       ... done (   0.0 sec)
Diagonalizing the Hamiltonian                      ... done (   0.0 sec)
Back transforming the eigenvectors                 ... done (   0.0 sec)
Now organizing SCF variables                       ... done
                      ------------------
                      INITIAL GUESS DONE (   0.1 sec)
                      ------------------
-------------------
DFT GRID GENERATION
-------------------

General Integration Accuracy     IntAcc      ... 4.388
Radial Grid Type                 RadialGrid  ... OptM3 with GC (2021)
Angular Grid (max. ang.)         AngularGrid ... 4 (Lebedev-302)
Angular grid pruning method      GridPruning ... 4 (adaptive)
Weight generation scheme         WeightScheme... Becke
Basis function cutoff            BFCut       ... 1.0000e-11
Integration weight cutoff        WCut        ... 1.0000e-14
Angular grids for H and He will be reduced by one unit
Partially contracted basis set               ... off
Rotationally invariant grid construction     ... off

Total number of grid points                  ...    62020
Total number of batches                      ...      976
Average number of points per batch           ...       63
Average number of grid points per atom       ...     4430
Time for grid setup =    0.211 sec

--------------------
COSX GRID GENERATION
--------------------

GRIDX 1
-------
General Integration Accuracy     IntAcc      ... 3.816
Radial Grid Type                 RadialGrid  ... OptM3 with GC (2021)
Angular Grid (max. ang.)         AngularGrid ... 1 (Lebedev-50)
Angular grid pruning method      GridPruning ... 4 (adaptive)
Weight generation scheme         WeightScheme... Becke
Basis function cutoff            BFCut       ... 1.0000e-11
Integration weight cutoff        WCut        ... 1.0000e-14
Angular grids for H and He will be reduced by one unit
Partially contracted basis set               ... on
Rotationally invariant grid construction     ... off

Total number of grid points                  ...     7963
Total number of batches                      ...      132
Average number of points per batch           ...       60
Average number of grid points per atom       ...      569
UseSFitting                                  ... on

GRIDX 2
-------
General Integration Accuracy     IntAcc      ... 4.020
Radial Grid Type                 RadialGrid  ... OptM3 with GC (2021)
Angular Grid (max. ang.)         AngularGrid ... 2 (Lebedev-110)
Angular grid pruning method      GridPruning ... 4 (adaptive)
Weight generation scheme         WeightScheme... Becke
Basis function cutoff            BFCut       ... 1.0000e-11
Integration weight cutoff        WCut        ... 1.0000e-14
Angular grids for H and He will be reduced by one unit
Partially contracted basis set               ... on
Rotationally invariant grid construction     ... off

Total number of grid points                  ...    16980
Total number of batches                      ...      272
Average number of points per batch           ...       62
Average number of grid points per atom       ...     1213
UseSFitting                                  ... on

GRIDX 3
-------
General Integration Accuracy     IntAcc      ... 4.338
Radial Grid Type                 RadialGrid  ... OptM3 with GC (2021)
Angular Grid (max. ang.)         AngularGrid ... 3 (Lebedev-194)
Angular grid pruning method      GridPruning ... 4 (adaptive)
Weight generation scheme         WeightScheme... Becke
Basis function cutoff            BFCut       ... 1.0000e-11
Integration weight cutoff        WCut        ... 1.0000e-14
Angular grids for H and He will be reduced by one unit
Partially contracted basis set               ... on
Rotationally invariant grid construction     ... off

Total number of grid points                  ...    37167
Total number of batches                      ...      588
Average number of points per batch           ...       63
Average number of grid points per atom       ...     2655
UseSFitting                                  ... on

Time for X-Grid setup             =    0.148 sec

--------------
SCF ITERATIONS
--------------
ITER       Energy         Delta-E        Max-DP      RMS-DP      [F,P]     Damp
               ***  Starting incremental Fock matrix formation  ***
  0   -270.1248151771   0.000000000000 0.06880369  0.00304352  0.2058085 0.7000
  1   -270.1991882081  -0.074373031050 0.04347664  0.00219715  0.0806516 0.7000
                               ***Turning on DIIS***
  2   -270.2296897684  -0.030501560270 0.07281079  0.00359078  0.0321817 0.0000
  3   -270.2755411850  -0.045851416563 0.03147743  0.00158916  0.0444189 0.0000
  4   -270.2864011016  -0.010859916675 0.00973098  0.00047888  0.0086283 0.0000
  5   -270.2870374419  -0.000636340255 0.00391612  0.00015993  0.0065436 0.0000
                      *** Initiating the SOSCF procedure ***
                           *** Shutting down DIIS ***
                      *** Re-Reading the Fockian *** 
                      *** Removing any level shift *** 
ITER      Energy       Delta-E        Grad      Rot      Max-DP    RMS-DP
  6   -270.28710657  -0.0000691316  0.000272  0.000272  0.001506  0.000070
               *** Restarting incremental Fock matrix formation ***
  7   -270.28712456  -0.0000179874  0.000246  0.001055  0.000929  0.000039
  8   -270.28712249   0.0000020719  0.000468  0.000745  0.000608  0.000025
  9   -270.28712577  -0.0000032781  0.000017  0.000079  0.000090  0.000003
 10   -270.28712575   0.0000000138  0.000030  0.000054  0.000054  0.000002
                  ***Gradient check signals convergence***
              ***Rediagonalizing the Fockian in SOSCF/NRSCF***

               *****************************************************
               *                     SUCCESS                       *
               *           SCF CONVERGED AFTER  11 CYCLES          *
               *****************************************************

Old exchange energy                            =     -7.372788333 Eh
New exchange energy                            =     -7.372795167 Eh
Exchange energy change after final integration =     -0.000006834 Eh
Total energy after final integration           =   -270.287132607 Eh
Final COS-X integration done in                =     0.446 sec

----------------
TOTAL SCF ENERGY
----------------

Total Energy       :         -270.28713261 Eh           -7354.88679 eV

Components:
Nuclear Repulsion  :          229.71519875 Eh            6250.86835 eV
Electronic Energy  :         -500.00233136 Eh          -13605.75514 eV
One Electron Energy:         -820.76605811 Eh          -22334.17989 eV
Two Electron Energy:          320.76372675 Eh            8728.42475 eV
Max COSX asymmetry :            0.00000130 Eh               0.00004 eV

Virial components:
Potential Energy   :         -538.95720409 Eh          -14665.77112 eV
Kinetic Energy     :          268.67007148 Eh            7310.88432 eV
Virial Ratio       :            2.00601876


DFT components:
N(Alpha)           :       23.000027627364 electrons
N(Beta)            :       23.000027627364 electrons
N(Total)           :       46.000055254729 electrons
E(X)               :      -29.302625524632 Eh       
E(C)               :       -1.792586686400 Eh       
E(XC)              :      -31.095212211032 Eh       
DFET-embed. en.    :        0.000000000000 Eh       

---------------
SCF CONVERGENCE
---------------

  Last Energy change         ...   -1.9159e-08  Tolerance :   1.0000e-08
  Last MAX-Density change    ...    4.4409e-15  Tolerance :   1.0000e-07
  Last RMS-Density change    ...    8.8105e-17  Tolerance :   5.0000e-09
  Last Orbital Gradient      ...    1.3306e-06  Tolerance :   1.0000e-05
  Last Orbital Rotation      ...    5.2905e-06  Tolerance :   1.0000e-05

             **** THE GBW FILE WAS UPDATED (claisen_ts.gbw) ****
             **** DENSITY claisen_ts.scfp WAS UPDATED ****
             **** ENERGY FILE WAS UPDATED (claisen_ts.en.tmp) ****
             **** THE GBW FILE WAS UPDATED (claisen_ts.gbw) ****
             **** DENSITY claisen_ts.scfp WAS UPDATED ****
----------------
ORBITAL ENERGIES
----------------

  NO   OCC          E(Eh)            E(eV) 
   0   2.0000     -19.126319      -520.4536 
   1   2.0000     -10.220336      -278.1095 
   2   2.0000     -10.212404      -277.8937 
   3   2.0000     -10.200919      -277.5811 
   4   2.0000     -10.176117      -276.9062 
   5   2.0000     -10.174600      -276.8650 
   6   2.0000      -0.997993       -27.1568 
   7   2.0000      -0.793706       -21.5978 
   8   2.0000      -0.728987       -19.8367 
   9   2.0000      -0.670363       -18.2415 
  10   2.0000      -0.564876       -15.3710 
  11   2.0000      -0.551072       -14.9954 
  12   2.0000      -0.482800       -13.1377 
  13   2.0000      -0.456383       -12.4188 
  14   2.0000      -0.438913       -11.9434 
  15   2.0000      -0.427645       -11.6368 
  16   2.0000      -0.391970       -10.6660 
  17   2.0000      -0.382328       -10.4037 
  18   2.0000      -0.366831        -9.9820 
  19   2.0000      -0.361904        -9.8479 
  20   2.0000      -0.268104        -7.2955 
  21   2.0000      -0.248580        -6.7642 
  22   2.0000      -0.218925        -5.9573 
  23   0.0000      -0.023384        -0.6363 
  24   0.0000       0.014214         0.3868 
  25   0.0000       0.094788         2.5793 
  26   0.0000       0.111841         3.0433 
  27   0.0000       0.121303         3.3008 
  28   0.0000       0.137849         3.7511 
  29   0.0000       0.149990         4.0814 
  30   0.0000       0.171701         4.6722 
  31   0.0000       0.185498         5.0476 
  32   0.0000       0.191689         5.2161 
  33   0.0000       0.210298         5.7225 
  34   0.0000       0.303663         8.2631 
  35   0.0000       0.309312         8.4168 
  36   0.0000       0.342611         9.3229 
  37   0.0000       0.354815         9.6550 
  38   0.0000       0.495671        13.4879 
  39   0.0000       0.514683        14.0052 
  40   0.0000       0.529201        14.4003 
  41   0.0000       0.561693        15.2844 
  42   0.0000       0.574723        15.6390 
  43   0.0000       0.592191        16.1143 
  44   0.0000       0.604515        16.4497 
  45   0.0000       0.633323        17.2336 
  46   0.0000       0.646386        17.5891 
  47   0.0000       0.671155        18.2631 
  48   0.0000       0.675118        18.3709 
  49   0.0000       0.749863        20.4048 
  50   0.0000       0.781705        21.2713 
  51   0.0000       0.819614        22.3028 
  52   0.0000       0.834564        22.7096 
  53   0.0000       0.849298        23.1106 
  54   0.0000       0.861100        23.4317 
  55   0.0000       0.888232        24.1700 
  56   0.0000       0.892673        24.2909 
  57   0.0000       0.920645        25.0520 
  58   0.0000       0.946737        25.7620 
  59   0.0000       0.952615        25.9220 
  60   0.0000       1.003363        27.3029 
  61   0.0000       1.043242        28.3881 
  62   0.0000       1.099537        29.9199 
  63   0.0000       1.156642        31.4738 
  64   0.0000       1.194269        32.4977 
  65   0.0000       1.228868        33.4392 
  66   0.0000       1.280759        34.8512 
  67   0.0000       1.334259        36.3070 
  68   0.0000       1.399793        38.0903 
  69   0.0000       1.483535        40.3690 
  70   0.0000       1.533002        41.7151 
  71   0.0000       1.545110        42.0446 
  72   0.0000       1.592089        43.3229 
  73   0.0000       1.666436        45.3460 
  74   0.0000       1.706912        46.4474 
  75   0.0000       1.722387        46.8685 
  76   0.0000       1.768895        48.1341 
  77   0.0000       1.810830        49.2752 
  78   0.0000       1.874880        51.0181 
  79   0.0000       1.916671        52.1553 
  80   0.0000       1.999235        54.4020 
  81   0.0000       2.004066        54.5334 
  82   0.0000       2.022140        55.0252 
  83   0.0000       2.065055        56.1930 
  84   0.0000       2.082540        56.6688 
  85   0.0000       2.195570        59.7445 
  86   0.0000       2.221844        60.4594 
  87   0.0000       2.266112        61.6640 
  88   0.0000       2.270697        61.7888 
  89   0.0000       2.315799        63.0161 
  90   0.0000       2.354915        64.0805 
  91   0.0000       2.412373        65.6440 
  92   0.0000       2.513034        68.3831 
  93   0.0000       2.590751        70.4979 
  94   0.0000       2.630234        71.5723 
  95   0.0000       2.683391        73.0188 
  96   0.0000       2.778684        75.6118 
  97   0.0000       2.861673        77.8701 
  98   0.0000       2.875802        78.2545 
  99   0.0000       2.997114        81.5556 

                    ********************************
                    * MULLIKEN POPULATION ANALYSIS *
                    ********************************

-----------------------
MULLIKEN ATOMIC CHARGES
-----------------------
   0 C :   -0.344906
   1 C :    0.193874
   2 O :   -0.445224
   3 C :   -0.203251
   4 C :   -0.048100
   5 C :   -0.319885
   6 H :    0.138404
   7 H :    0.160258
   8 H :    0.088580
   9 H :    0.168503
  10 H :    0.162702
  11 H :    0.130013
  12 H :    0.159280
  13 H :    0.159752
Sum of atomic charges:    0.0000000

--------------------------------
MULLIKEN REDUCED ORBITAL CHARGES
--------------------------------
  0 C s       :     3.294863  s :     3.294863
      pz      :     1.032431  p :     3.020641
      px      :     0.979698
      py      :     1.008512
      dz2     :     0.009002  d :     0.029403
      dxz     :     0.003299
      dyz     :     0.006445
      dx2y2   :     0.004131
      dxy     :     0.006526
  1 C s       :     3.114330  s :     3.114330
      pz      :     0.917397  p :     2.615948
      px      :     0.843104
      py      :     0.855447
      dz2     :     0.017964  d :     0.075849
      dxz     :     0.011925
      dyz     :     0.014870
      dx2y2   :     0.015357
      dxy     :     0.015732
  2 O s       :     3.886776  s :     3.886776
      pz      :     1.721386  p :     4.533573
      px      :     1.244318
      py      :     1.567869
      dz2     :     0.003472  d :     0.024875
      dxz     :     0.003534
      dyz     :     0.005289
      dx2y2   :     0.006465
      dxy     :     0.006115
  3 C s       :     3.313396  s :     3.313396
      pz      :     1.025807  p :     2.852540
      px      :     0.811220
      py      :     1.015513
      dz2     :     0.011356  d :     0.037315
      dxz     :     0.002664
      dyz     :     0.008075
      dx2y2   :     0.006357
      dxy     :     0.008863
  4 C s       :     3.141337  s :     3.141337
      pz      :     0.959302  p :     2.871158
      px      :     1.014249
      py      :     0.897606
      dz2     :     0.010723  d :     0.035605
      dxz     :     0.003482
      dyz     :     0.008044
      dx2y2   :     0.006824
      dxy     :     0.006532
  5 C s       :     3.311560  s :     3.311560
      pz      :     1.026900  p :     2.975771
      px      :     0.920625
      py      :     1.028246
      dz2     :     0.011174  d :     0.032554
      dxz     :     0.002731
      dyz     :     0.006274
      dx2y2   :     0.008693
      dxy     :     0.003682
  6 H s       :     0.861596  s :     0.861596
  7 H s       :     0.839742  s :     0.839742
  8 H s       :     0.911420  s :     0.911420
  9 H s       :     0.831497  s :     0.831497
 10 H s       :     0.837298  s :     0.837298
 11 H s       :     0.869987  s :     0.869987
 12 H s       :     0.840720  s :     0.840720
 13 H s       :     0.840248  s :     0.840248


                     *******************************
                     * LOEWDIN POPULATION ANALYSIS *
                     *******************************

----------------------
LOEWDIN ATOMIC CHARGES
----------------------
   0 C :   -0.280675
   1 C :   -0.029011
   2 O :   -0.238811
   3 C :   -0.112635
   4 C :   -0.189081
   5 C :   -0.194402
   6 H :    0.130921
   7 H :    0.139347
   8 H :    0.090533
   9 H :    0.143253
  10 H :    0.136856
  11 H :    0.129762
  12 H :    0.138212
  13 H :    0.135731

-------------------------------
LOEWDIN REDUCED ORBITAL CHARGES
-------------------------------
  0 C s       :     3.014943  s :     3.014943
      pz      :     1.103875  p :     3.203755
      px      :     1.016743
      py      :     1.083138
      dz2     :     0.017877  d :     0.061977
      dxz     :     0.005528
      dyz     :     0.015876
      dx2y2   :     0.009945
      dxy     :     0.012751
  1 C s       :     2.915863  s :     2.915863
      pz      :     1.026572  p :     2.935709
      px      :     0.911665
      py      :     0.997472
      dz2     :     0.039733  d :     0.177440
      dxz     :     0.027284
      dyz     :     0.035784
      dx2y2   :     0.037428
      dxy     :     0.037211
  2 O s       :     3.577706  s :     3.577706
      pz      :     1.738178  p :     4.606953
      px      :     1.275958
      py      :     1.592817
      dz2     :     0.007440  d :     0.054153
      dxz     :     0.008524
      dyz     :     0.009820
      dx2y2   :     0.014498
      dxy     :     0.013872
  3 C s       :     3.003548  s :     3.003548
      pz      :     1.099480  p :     3.032286
      px      :     0.839524
      py      :     1.093282
      dz2     :     0.022344  d :     0.076801
      dxz     :     0.004627
      dyz     :     0.018081
      dx2y2   :     0.014416
      dxy     :     0.017333
  4 C s       :     2.918977  s :     2.918977
      pz      :     1.075934  p :     3.183954
      px      :     1.049251
      py      :     1.058770
      dz2     :     0.022957  d :     0.086150
      dxz     :     0.007451
      dyz     :     0.021994
      dx2y2   :     0.017274
      dxy     :     0.016474
  5 C s       :     3.002939  s :     3.002939
      pz      :     1.097097  p :     3.124903
      px      :     0.941882
      py      :     1.085925
      dz2     :     0.021945  d :     0.066559
      dxz     :     0.005933
      dyz     :     0.014050
      dx2y2   :     0.016416
      dxy     :     0.008216
  6 H s       :     0.869079  s :     0.869079
  7 H s       :     0.860653  s :     0.860653
  8 H s       :     0.909467  s :     0.909467
  9 H s       :     0.856747  s :     0.856747
 10 H s       :     0.863144  s :     0.863144
 11 H s       :     0.870238  s :     0.870238
 12 H s       :     0.861788  s :     0.861788
 13 H s       :     0.864269  s :     0.864269


                      *****************************
                      * MAYER POPULATION ANALYSIS *
                      *****************************

  NA   - Mulliken gross atomic population
  ZA   - Total nuclear charge
  QA   - Mulliken gross atomic charge
  VA   - Mayer's total valence
  BVA  - Mayer's bonded valence
  FA   - Mayer's free valence

  ATOM       NA         ZA         QA         VA         BVA        FA
  0 C      6.3449     6.0000    -0.3449     3.8076     3.8076    -0.0000
  1 C      5.8061     6.0000     0.1939     3.9130     3.9130     0.0000
  2 O      8.4452     8.0000    -0.4452     2.0079     2.0079     0.0000
  3 C      6.2033     6.0000    -0.2033     3.8525     3.8525     0.0000
  4 C      6.0481     6.0000    -0.0481     3.8800     3.8800     0.0000
  5 C      6.3199     6.0000    -0.3199     3.8787     3.8787     0.0000
  6 H      0.8616     1.0000     0.1384     0.9410     0.9410    -0.0000
  7 H      0.8397     1.0000     0.1603     0.9411     0.9411    -0.0000
  8 H      0.9114     1.0000     0.0886     0.9350     0.9350    -0.0000
  9 H      0.8315     1.0000     0.1685     0.9342     0.9342     0.0000
 10 H      0.8373     1.0000     0.1627     0.9302     0.9302     0.0000
 11 H      0.8700     1.0000     0.1300     0.9392     0.9392    -0.0000
 12 H      0.8407     1.0000     0.1593     0.9351     0.9351     0.0000
 13 H      0.8402     1.0000     0.1598     0.9362     0.9362     0.0000

  Mayer bond orders larger than 0.100000
B(  0-C ,  1-C ) :   1.4906 B(  0-C ,  3-C ) :   0.1122 B(  0-C ,  5-C ) :   0.3431 
B(  0-C ,  6-H ) :   0.9299 B(  0-C ,  7-H ) :   0.9332 B(  1-C ,  2-O ) :   1.4089 
B(  1-C ,  8-H ) :   0.9149 B(  2-O ,  3-C ) :   0.4519 B(  3-C ,  4-C ) :   1.3807 
B(  3-C ,  9-H ) :   0.9371 B(  3-C , 10-H ) :   0.9334 B(  4-C ,  5-C ) :   1.5283 
B(  4-C , 11-H ) :   0.9363 B(  5-C , 12-H ) :   0.9346 B(  5-C , 13-H ) :   0.9348 


-------
TIMINGS
-------

Total SCF time: 0 days 0 hours 0 min 3 sec 

Total time                  ....       3.836 sec
Sum of individual times     ....       3.738 sec  ( 97.5%)

Fock matrix formation       ....       3.272 sec  ( 85.3%)
  Split-RI-J                ....       0.379 sec  ( 11.6% of F)
  Chain of spheres X        ....       2.250 sec  ( 68.8% of F)
  XC integration            ....       0.597 sec  ( 18.3% of F)
    Basis function eval.    ....       0.223 sec  ( 37.4% of XC)
    Density eval.           ....       0.096 sec  ( 16.1% of XC)
    XC-Functional eval.     ....       0.065 sec  ( 10.8% of XC)
    XC-Potential eval.      ....       0.118 sec  ( 19.8% of XC)
Diagonalization             ....       0.017 sec  (  0.4%)
Density matrix formation    ....       0.002 sec  (  0.0%)
Population analysis         ....       0.003 sec  (  0.1%)
Initial guess               ....       0.026 sec  (  0.7%)
Orbital Transformation      ....       0.000 sec  (  0.0%)
Orbital Orthonormalization  ....       0.000 sec  (  0.0%)
DIIS solution               ....       0.015 sec  (  0.4%)
SOSCF solution              ....       0.009 sec  (  0.2%)
Grid generation             ....       0.394 sec  ( 10.3%)

Maximum memory used throughout the entire SCF-calculation: 48.8 MB

-------------------------   --------------------
FINAL SINGLE POINT ENERGY      -270.287132606809
-------------------------   --------------------



           ************************************************************
           *        Program running with 8 parallel MPI-processes     *
           *              working on a common directory               *
           ************************************************************
------------------------------------------------------------------------------
                         ORCA SCF GRADIENT CALCULATION
------------------------------------------------------------------------------

 ... reading COSX grid (gridx3)
Gradient of the Kohn-Sham DFT energy:
Kohn-Sham wavefunction type      ... RKS
Hartree-Fock exchange scaling    ...    0.200
Number of operators              ...    1
Number of atoms                  ...   14
Basis set dimensions             ...  100
Integral neglect threshold       ... 2.5e-11
Integral primitive cutoff        ... 2.5e-12
SHARK Integral package           ... ON

Nuc. rep. gradient       (SHARK) ... done (  0.0 sec)
HCore & Overlap gradient (SHARK) ... done (  0.0 sec)
RI-J gradient            (SHARK) ... done (  0.1 sec)
COSX-gradient                    ... done (  0.5 sec)
Exchange-correlation gradient    ... done

------------------
CARTESIAN GRADIENT
------------------

   1   C   :    0.000033090   -0.000394198    0.000060190
   2   C   :    0.000176316    0.000311752    0.000005659
   3   O   :   -0.000402952    0.000246979   -0.000083314
   4   C   :    0.000251560    0.000435072   -0.000050491
   5   C   :   -0.000289993   -0.000067658    0.000341444
   6   C   :    0.000218164   -0.000360636   -0.000138495
   7   H   :    0.000116369   -0.000139603   -0.000046831
   8   H   :   -0.000056499   -0.000014942    0.000193389
   9   H   :    0.000108285   -0.000009501   -0.000175059
  10   H   :   -0.000104021    0.000147982    0.000066710
  11   H   :   -0.000013691    0.000018712   -0.000202895
  12   H   :   -0.000071174   -0.000021647    0.000146916
  13   H   :    0.000017289   -0.000168873    0.000083367
  14   H   :    0.000016508    0.000022672   -0.000224648

Difference to translation invariance:
           :   -0.0000007487    0.0000061105   -0.0000240569

Difference to rotation invariance:
           :    0.0005772719    0.0004074190    0.0000691064

Norm of the cartesian gradient     ...    0.0012196117
RMS gradient                       ...    0.0001881902
MAX gradient                       ...    0.0004350720

-------
TIMINGS
-------

Total SCF gradient time            ...        1.032 sec

One electron gradient       ....       0.013 sec  (  1.2%)
RI-J Coulomb gradient       ....       0.101 sec  (  9.8%)
COSX gradient               ....       0.529 sec  ( 51.3%)
XC gradient                 ....       0.263 sec  ( 25.5%)

Maximum memory used throughout the entire SCFGRAD-calculation: 37.3 MB
------------------------------------------------------------------------------
                         ORCA GEOMETRY RELAXATION STEP
------------------------------------------------------------------------------

Reading the OPT-File                    .... done
Getting information on internals        .... done
Copying old internal coords+grads       .... done
Making the new internal coordinates     .... (new redundants).... done
Validating the new internal coordinates .... (new redundants).... done
Calculating the B-matrix                .... done
Calculating the G,G- and P matrices     .... done
Transforming gradient to internals      .... done
Projecting the internal gradient        .... done
Number of atoms                         ....  14
Number of internal coordinates          ....  51
Current Energy                          ....  -270.287132607 Eh
Current gradient norm                   ....     0.001219612 Eh/bohr
Maximum allowed component of the step   ....  0.300
Current trust radius                    ....  0.300
Evaluating the initial hessian          ....  (Almloef) done
Projecting the Hessian                  .... done
Diagonalizing the Hessian               .... done
Dimension of the hessian                ....  51
Lowest eigenvalues of the Hessian:
  0.001918272  0.026727660  0.028509420  0.028516836  0.032531188
Hessian has   0 negative eigenvalues
Taking P-RFO step
Searching for lambda that maximizes along the lowest mode
TS mode is mode number   0 with eigenvalue   0.00191827 and components:
   1.   -0.00000000
   2.    0.00000000
   3.    0.00000000
   4.    0.00000000
   5.   -0.00000000
   6.    0.00000000
   7.    0.00000000
   8.    0.00000000
   9.   -0.00000000
  10.   -0.00000000
  11.   -0.00000000
  12.    0.00000000
  13.    0.00000000
  14.   -0.00000000
  15.   -0.00000000
  16.   -0.00000000
  17.    0.00000000
  18.    0.00000000
  19.    0.00000000
  20.    0.00000000
  21.    0.00000000
  22.   -0.00000000
  23.    0.00000000
  24.    0.00000000
  25.   -0.00000000
  26.   -0.00000000
  27.   -0.00000000
  28.    0.00000000
  29.   -0.00000000
  30.   -0.00000000
  31.   -0.00000000
  32.    0.00000000
  33.   -0.00000000
  34.    0.00000000
  35.   -0.00000000
  36.   -0.00000000
  37.    0.00000000
  38.    0.00000000
  39.   -0.57735027
  40.   -0.57735027
  41.   -0.57735027
  42.    0.00000000
  43.    0.00000000
  44.    0.00000000
  45.    0.00000000
  46.   -0.00000000
  47.    0.00000000
  48.    0.00000000
  49.   -0.00000000
  50.   -0.00000000
  51.   -0.00000000

Lambda that maximizes along the TS mode:       0.00192196
Searching for lambda that minimizes along all other modes
In cycle   1: lambdaN =  -0.00000451   step =   0.00000451
In cycle   2: lambdaN =  -0.00000451   step =   0.00000000
Lambda that minimizes along all other modes:  -0.00000451
Calculated stepsize too large (   0.5196 >    0.3000). Scaled with    0.5773.
The final length of the internal step   ....       0.3000
Converting the step to cartesian space:
 Initial RMS(Int)=    0.0420084025
Transforming coordinates:
 Iter   0:  RMS(Cart)=    0.1557880086 RMS(Int)=    0.8564181986
 Iter   1:  RMS(Cart)=    0.0133119354 RMS(Int)=    0.0059319311
 Iter   2:  RMS(Cart)=    0.0015522823 RMS(Int)=    0.0004343717
 Iter   3:  RMS(Cart)=    0.0002516266 RMS(Int)=    0.0001090520
 Iter   4:  RMS(Cart)=    0.0000293749 RMS(Int)=    0.0000085807
 Iter   5:  RMS(Cart)=    0.0000047209 RMS(Int)=    0.0000020218
 Iter   6:  RMS(Cart)=    0.0000005505 RMS(Int)=    0.0000001676
 Iter   7:  RMS(Cart)=    0.0000000884 RMS(Int)=    0.0000000373
done
Storing new coordinates                 .... done

                                .--------------------.
          ----------------------|Geometry convergence|-------------------------
          Item                value                   Tolerance       Converged
          ---------------------------------------------------------------------
          RMS gradient        0.0001941615            0.0001000000      NO
          MAX gradient        0.0006374428            0.0003000000      NO
          RMS step            0.0420084025            0.0020000000      NO
          MAX step            0.1731953561            0.0040000000      NO
          ........................................................
          Max(Bonds)      0.0003      Max(Angles)    0.05
          Max(Dihed)        9.92      Max(Improp)    0.00
          ---------------------------------------------------------------------

The optimization has not yet converged - more geometry cycles are needed


    ---------------------------------------------------------------------------
                         Redundant Internal Coordinates
                            (Angstroem and degrees)

        Definition                    Value    dE/dq     Step     New-Value  comp.(TS mode)
    ----------------------------------------------------------------------------
     1. B(C   1,C   0)                1.3832 -0.000590  0.0003    1.3835   
     2. B(O   2,C   1)                1.2878 -0.000403  0.0002    1.2879   
     3. B(C   3,O   2)                1.9043  0.000039 -0.0001    1.9041   
     4. B(C   4,C   3)                1.4021 -0.000637  0.0003    1.4025   
     5. B(C   5,C   4)                1.3832 -0.000628  0.0003    1.3835   
     6. B(H   6,C   0)                1.0877 -0.000192  0.0002    1.0879   
     7. B(H   7,C   0)                1.0838 -0.000190  0.0002    1.0840   
     8. B(H   8,C   1)                1.1042 -0.000196  0.0002    1.1044   
     9. B(H   9,C   3)                1.0847 -0.000200  0.0002    1.0848   
    10. B(H  10,C   3)                1.0859 -0.000182  0.0002    1.0861   
    11. B(H  11,C   4)                1.0884 -0.000169  0.0001    1.0885   
    12. B(H  12,C   5)                1.0866 -0.000184  0.0002    1.0867   
    13. B(H  13,C   5)                1.0856 -0.000231  0.0002    1.0858   
    14. A(H   6,C   0,H   7)          116.86  0.000011   -0.00    116.86   
    15. A(C   1,C   0,H   6)          119.90 -0.000031    0.00    119.91   
    16. A(C   1,C   0,H   7)          119.86  0.000016   -0.00    119.85   
    17. A(C   0,C   1,H   8)          117.87  0.000082   -0.01    117.86   
    18. A(C   0,C   1,O   2)          122.86 -0.000075    0.01    122.87   
    19. A(O   2,C   1,H   8)          118.15 -0.000007    0.00    118.15   
    20. A(C   1,O   2,C   3)          108.35 -0.000453    0.05    108.40   
    21. A(O   2,C   3,C   4)          101.92 -0.000176    0.03    101.95   
    22. A(C   4,C   3,H  10)          119.44  0.000043   -0.01    119.43   
    23. A(O   2,C   3,H  10)           95.12 -0.000006    0.01     95.13   
    24. A(C   4,C   3,H   9)          120.15  0.000003   -0.00    120.14   
    25. A(O   2,C   3,H   9)           97.22  0.000107   -0.01     97.21   
    26. A(H   9,C   3,H  10)          114.46 -0.000006   -0.00    114.45   
    27. A(C   3,C   4,H  11)          118.01 -0.000006    0.01    118.01   
    28. A(C   5,C   4,H  11)          118.64 -0.000010    0.01    118.64   
    29. A(C   3,C   4,C   5)          119.83  0.000001    0.00    119.83   
    30. A(H  12,C   5,H  13)          114.97 -0.000017   -0.00    114.97   
    31. A(C   4,C   5,H  13)          120.49  0.000063   -0.01    120.48   
    32. A(C   4,C   5,H  12)          121.07 -0.000039    0.00    121.07   
    33. D(H   8,C   1,C   0,H   6)    -13.02 -0.000002   -0.00    -13.02   
    34. D(H   8,C   1,C   0,H   7)   -171.61  0.000007   -0.01   -171.62   
    35. D(O   2,C   1,C   0,H   7)     20.75  0.000008   -0.01     20.75   
    36. D(O   2,C   1,C   0,H   6)    179.35 -0.000000    0.00    179.35   
    37. D(C   3,O   2,C   1,H   8)    -90.56  0.000048   -0.03    -90.60   
    38. D(C   3,O   2,C   1,C   0)     77.04  0.000056   -0.03     77.00   
    39. D(H  10,C   3,O   2,C   1)     66.60 -0.000051   -9.92     56.68          0.58
    40. D(H   9,C   3,O   2,C   1)   -177.91 -0.000041   -9.92   -187.84          0.58
    41. D(C   4,C   3,O   2,C   1)    -54.95 -0.000053   -9.92    -64.87          0.58
    42. D(H  11,C   4,C   3,H   9)     16.10 -0.000039    0.03     16.14   
    43. D(H  11,C   4,C   3,O   2)    -89.63 -0.000053    0.03    -89.60   
    44. D(C   5,C   4,C   3,H  10)    -34.02  0.000003    0.05    -33.97   
    45. D(C   5,C   4,C   3,H   9)    174.65 -0.000086    0.08    174.73   
    46. D(H  11,C   4,C   3,H  10)    167.44  0.000050    0.00    167.44   
    47. D(C   5,C   4,C   3,O   2)     68.92 -0.000100    0.08     69.00   
    48. D(H  13,C   5,C   4,H  11)   -172.29 -0.000046    0.05   -172.24   
    49. D(H  13,C   5,C   4,C   3)     29.30  0.000001   -0.00     29.30   
    50. D(H  12,C   5,C   4,H  11)    -14.35 -0.000027    0.03    -14.32   
    51. D(H  12,C   5,C   4,C   3)   -172.76  0.000020   -0.02   -172.78   
    ----------------------------------------------------------------------------

         *************************************************************
         *                GEOMETRY OPTIMIZATION CYCLE   2            *
         *************************************************************
---------------------------------
CARTESIAN COORDINATES (ANGSTROEM)
---------------------------------
  C     -1.500922    0.790696   -0.169276
  C     -1.317134   -0.521167    0.229890
  O     -0.494866   -1.321201   -0.355447
  C      1.271063   -0.886218    0.208471
  C      1.432971    0.405082   -0.314230
  C      0.705391    1.457149    0.212873
  H     -2.216597    1.421568    0.353547
  H     -1.221729    1.093818   -1.171850
  H     -1.739755   -0.828646    1.202815
  H      1.773367   -1.728555   -0.255258
  H      1.068279   -1.011479    1.268059
  H      1.837193    0.502447   -1.320197
  H      0.726225    2.440582   -0.249029
  H      0.395773    1.445983    1.253532

----------------------------
CARTESIAN COORDINATES (A.U.)
----------------------------
  NO LB      ZA    FRAG     MASS         X           Y           Z
   0 C     6.0000    0    12.011   -2.836332    1.494198   -0.319886
   1 C     6.0000    0    12.011   -2.489023   -0.984864    0.434430
   2 O     8.0000    0    15.999   -0.935161   -2.496708   -0.671698
   3 C     6.0000    0    12.011    2.401961   -1.674710    0.393953
   4 C     6.0000    0    12.011    2.707923    0.765494   -0.593808
   5 C     6.0000    0    12.011    1.332997    2.753613    0.402272
   6 H     1.0000    0     1.008   -4.188762    2.686374    0.668107
   7 H     1.0000    0     1.008   -2.308733    2.067017   -2.214476
   8 H     1.0000    0     1.008   -3.287661   -1.565914    2.272991
   9 H     1.0000    0     1.008    3.351178   -3.266496   -0.482368
  10 H     1.0000    0     1.008    2.018754   -1.911418    2.396284
  11 H     1.0000    0     1.008    3.471792    0.949488   -2.494811
  12 H     1.0000    0     1.008    1.372367    4.612031   -0.470597
  13 H     1.0000    0     1.008    0.747902    2.732513    2.368833

--------------------------------
INTERNAL COORDINATES (ANGSTROEM)
--------------------------------
 C      0   0   0     0.000000000000     0.00000000     0.00000000
 C      1   0   0     1.383508958191     0.00000000     0.00000000
 O      2   1   0     1.287944042385   122.86698382     0.00000000
 C      3   2   1     1.904131713119   108.39708082    77.00356037
 C      4   3   2     1.402457647093   101.94802764   295.12635565
 C      5   4   3     1.383493729177   119.83206978    68.99843564
 H      1   2   3     1.087903576524   119.90747923   179.34755539
 H      1   2   3     1.083967978863   119.85440828    20.74636465
 H      2   1   3     1.104415641088   117.86072660   167.63387518
 H      4   3   2     1.084843709416    97.20633957   172.16250268
 H      4   3   2     1.086065145678    95.13055295    56.67795515
 H      5   4   3     1.088506421058   118.01304234   270.40444083
 H      6   5   4     1.086704935471   121.07451214   187.22145070
 H      6   5   4     1.085799416259   120.48394182    29.29697929

---------------------------
INTERNAL COORDINATES (A.U.)
---------------------------
 C      0   0   0     0.000000000000     0.00000000     0.00000000
 C      1   0   0     2.614453034807     0.00000000     0.00000000
 O      2   1   0     2.433861515923   122.86698382     0.00000000
 C      3   2   1     3.598287460709   108.39708082    77.00356037
 C      4   3   2     2.650260867430   101.94802764   295.12635565
 C      5   4   3     2.614424256142   119.83206978    68.99843564
 H      1   2   3     2.055839819744   119.90747923   179.34755539
 H      1   2   3     2.048402617991   119.85440828    20.74636465
 H      2   1   3     2.087043099675   117.86072660   167.63387518
 H      4   3   2     2.050057508904    97.20633957   172.16250268
 H      4   3   2     2.052365688929    95.13055295    56.67795515
 H      5   4   3     2.056979030815   118.01304234   270.40444083
 H      6   5   4     2.053574716422   121.07451214   187.22145070
 H      6   5   4     2.051863533101   120.48394182    29.29697929



           ************************************************************
           *        Program running with 8 parallel MPI-processes     *
           *              working on a common directory               *
           ************************************************************
------------------------------------------------------------------------------
                   ___                                                        
                  /   \      - P O W E R E D   B Y -                         
                 /     \                                                     
                 |  |  |   _    _      __       _____    __    __             
                 |  |  |  | |  | |    /  \     |  _  \  |  |  /  |          
                  \  \/   | |  | |   /    \    | | | |  |  | /  /          
                 / \  \   | |__| |  /  /\  \   | |_| |  |  |/  /          
                |  |  |   |  __  | /  /__\  \  |    /   |      \           
                |  |  |   | |  | | |   __   |  |    \   |  |\   \          
                \     /   | |  | | |  |  |  |  | |\  \  |  | \   \       
                 \___/    |_|  |_| |__|  |__|  |_| \__\ |__|  \__/        
                                                                              
                      - O R C A' S   B I G   F R I E N D -                    
                                      &                                       
                       - I N T E G R A L  F E E D E R -                       
                                                                              
 v1 FN, 2020, v2 2021                                                         
------------------------------------------------------------------------------


Reading SHARK input file claisen_ts.SHARKINP.tmp ... ok
----------------------
SHARK INTEGRAL PACKAGE
----------------------

Number of atoms                             ...     14
Number of basis functions                   ...    100
Number of shells                            ...     52
Maximum angular momentum                    ...      2
Integral batch strategy                     ... SHARK/LIBINT Hybrid
RI-J (if used) integral strategy            ... SPLIT-RIJ (Revised 2003 algorithm where possible)
Printlevel                                  ...      1
Contraction scheme used                     ... SEGMENTED contraction
Coulomb Range Separation                    ... NOT USED
Exchange Range Separation                   ... NOT USED
Finite Nucleus Model                        ... NOT USED
Auxiliary Coulomb fitting basis             ... AVAILABLE
   # of basis functions in Aux-J            ...    382
   # of shells in Aux-J                     ...    130
   Maximum angular momentum in Aux-J        ...      4
Auxiliary J/K fitting basis                 ... NOT available
Auxiliary Correlation fitting basis         ... NOT available
Auxiliary 'external' fitting basis          ... NOT available
Integral threshold                          ...     2.500000e-11
Primitive cut-off                           ...     2.500000e-12
Primitive pair pre-selection threshold      ...     2.500000e-12

Calculating pre-screening integrals         ... done (  0.0 sec) Dimension = 52
Organizing shell pair data                  ... done (  0.0 sec)
Shell pair information
Total number of shell pairs                 ...      1378
Shell pairs after pre-screening             ...      1359
Total number of primitive shell pairs       ...      7653
Primitive shell pairs kept                  ...      5346
          la=0 lb=0:    576 shell pairs
          la=1 lb=0:    408 shell pairs
          la=1 lb=1:     78 shell pairs
          la=2 lb=0:    204 shell pairs
          la=2 lb=1:     72 shell pairs
          la=2 lb=2:     21 shell pairs

Calculating one electron integrals          ... done (  0.0 sec)
Calculating RI/J V-Matrix + Cholesky decomp.... done (  0.0 sec)
Calculating Nuclear repulsion               ... done (  0.0 sec) ENN=    228.776659966184 Eh

SHARK setup successfully completed in   0.1 seconds

Maximum memory used throughout the entire GTOINT-calculation: 9.7 MB


           ************************************************************
           *        Program running with 8 parallel MPI-processes     *
           *              working on a common directory               *
           ************************************************************

Diagonalization of the overlap matrix:
Smallest eigenvalue                        ... 4.896e-03
Time for diagonalization                   ...    0.002 sec
Threshold for overlap eigenvalues          ... 1.000e-08
Number of eigenvalues below threshold      ... 0
Time for construction of square roots      ...    0.001 sec
Total time needed                          ...    0.003 sec

-------------------
DFT GRID GENERATION
-------------------

General Integration Accuracy     IntAcc      ... 4.388
Radial Grid Type                 RadialGrid  ... OptM3 with GC (2021)
Angular Grid (max. ang.)         AngularGrid ... 4 (Lebedev-302)
Angular grid pruning method      GridPruning ... 4 (adaptive)
Weight generation scheme         WeightScheme... Becke
Basis function cutoff            BFCut       ... 1.0000e-11
Integration weight cutoff        WCut        ... 1.0000e-14
Angular grids for H and He will be reduced by one unit
Partially contracted basis set               ... off
Rotationally invariant grid construction     ... off

Total number of grid points                  ...    62027
Total number of batches                      ...      978
Average number of points per batch           ...       63
Average number of grid points per atom       ...     4430
Time for grid setup =    0.211 sec

--------------------
COSX GRID GENERATION
--------------------

GRIDX 1
-------
General Integration Accuracy     IntAcc      ... 3.816
Radial Grid Type                 RadialGrid  ... OptM3 with GC (2021)
Angular Grid (max. ang.)         AngularGrid ... 1 (Lebedev-50)
Angular grid pruning method      GridPruning ... 4 (adaptive)
Weight generation scheme         WeightScheme... Becke
Basis function cutoff            BFCut       ... 1.0000e-11
Integration weight cutoff        WCut        ... 1.0000e-14
Angular grids for H and He will be reduced by one unit
Partially contracted basis set               ... on
Rotationally invariant grid construction     ... off

Total number of grid points                  ...     7954
Total number of batches                      ...      132
Average number of points per batch           ...       60
Average number of grid points per atom       ...      568
UseSFitting                                  ... on

GRIDX 2
-------
General Integration Accuracy     IntAcc      ... 4.020
Radial Grid Type                 RadialGrid  ... OptM3 with GC (2021)
Angular Grid (max. ang.)         AngularGrid ... 2 (Lebedev-110)
Angular grid pruning method      GridPruning ... 4 (adaptive)
Weight generation scheme         WeightScheme... Becke
Basis function cutoff            BFCut       ... 1.0000e-11
Integration weight cutoff        WCut        ... 1.0000e-14
Angular grids for H and He will be reduced by one unit
Partially contracted basis set               ... on
Rotationally invariant grid construction     ... off

Total number of grid points                  ...    16967
Total number of batches                      ...      270
Average number of points per batch           ...       62
Average number of grid points per atom       ...     1212
UseSFitting                                  ... on

GRIDX 3
-------
General Integration Accuracy     IntAcc      ... 4.338
Radial Grid Type                 RadialGrid  ... OptM3 with GC (2021)
Angular Grid (max. ang.)         AngularGrid ... 3 (Lebedev-194)
Angular grid pruning method      GridPruning ... 4 (adaptive)
Weight generation scheme         WeightScheme... Becke
Basis function cutoff            BFCut       ... 1.0000e-11
Integration weight cutoff        WCut        ... 1.0000e-14
Angular grids for H and He will be reduced by one unit
Partially contracted basis set               ... on
Rotationally invariant grid construction     ... off

Total number of grid points                  ...    37187
Total number of batches                      ...      590
Average number of points per batch           ...       63
Average number of grid points per atom       ...     2656
UseSFitting                                  ... on

Time for X-Grid setup             =    0.147 sec

--------------
SCF ITERATIONS
--------------
ITER       Energy         Delta-E        Max-DP      RMS-DP      [F,P]     Damp
               ***  Starting incremental Fock matrix formation  ***
  0   -270.2646237503   0.000000000000 0.00819753  0.00047436  0.0602921 0.7000
  1   -270.2694794329  -0.004855682582 0.00734465  0.00046583  0.0472332 0.7000
                               ***Turning on DIIS***
  2   -270.2733264505  -0.003847017576 0.01945477  0.00127187  0.0352111 0.0000
  3   -270.2831523979  -0.009825947389 0.00258410  0.00020075  0.0042025 0.0000
                      *** Initiating the SOSCF procedure ***
                           *** Shutting down DIIS ***
                      *** Re-Reading the Fockian *** 
                      *** Removing any level shift *** 
ITER      Energy       Delta-E        Grad      Rot      Max-DP    RMS-DP
  4   -270.28331363  -0.0001612307  0.000981  0.000981  0.001276  0.000096
               *** Restarting incremental Fock matrix formation ***
  5   -270.28334229  -0.0000286621  0.000549  0.002314  0.001960  0.000092
  6   -270.28334914  -0.0000068521  0.000544  0.002327  0.001443  0.000074
  7   -270.28335244  -0.0000033022  0.000314  0.001068  0.000719  0.000041
[...]
      8      -0.029065   0.008585  -0.048472  -0.018478  -0.087853  -0.003822
      9      -0.057629  -0.010134  -0.015866   0.031357   0.037686  -0.021110
     10      -0.079562   0.075622  -0.037128   0.019184   0.022567   0.003576
     11      -0.004734  -0.107481   0.078779  -0.033298  -0.024147   0.028159
     12       0.016234  -0.005658   0.042501  -0.087132  -0.014137   0.041922
     13       0.022234  -0.115693   0.043757   0.014339   0.014548  -0.144304
     14       0.002261   0.072221  -0.114005   0.166675   0.018760  -0.014858
     15      -0.043995   0.004752  -0.009453   0.068732  -0.015008   0.009019
     16       0.017550   0.045574  -0.006222  -0.044523  -0.006509   0.014400
     17      -0.014442   0.029320   0.050302  -0.136225   0.010893  -0.026293
     18      -0.003159  -0.012241  -0.077588  -0.058233  -0.029747   0.010085
     19      -0.115061   0.080925   0.082867   0.011072  -0.016465   0.117216
     20       0.087140  -0.083596  -0.175681  -0.080827  -0.008735  -0.121235
     21      -0.089427  -0.037905  -0.224697  -0.089219  -0.077133  -0.028618
     22       0.055021   0.275413   0.649056   0.223826  -0.022121   0.053242
     23      -0.031618  -0.034055  -0.107173  -0.037211   0.002093   0.023880
     24      -0.103315   0.095770  -0.011778   0.000039  -0.469024  -0.168209
     25       0.031636  -0.257391  -0.263152  -0.085986   0.752309   0.306958
     26      -0.016209   0.054823   0.176171   0.065455   0.059609  -0.007436
     27       0.366442   0.003755   0.014099  -0.138700  -0.124884   0.041580
     28       0.035533   0.047617   0.024501  -0.076988  -0.070765   0.278508
     29       0.179017  -0.029367  -0.005910  -0.017190  -0.020631  -0.309357
     30       0.698130   0.120699  -0.035714  -0.101175  -0.075354  -0.083845
     31       0.237116   0.477819  -0.378825   0.231746   0.094245   0.234511
     32       0.142966  -0.036995   0.026382  -0.015305  -0.028936   0.045555
     33       0.190310   0.168818  -0.000112  -0.213028   0.083086  -0.119712
     34       0.119412  -0.673299   0.196894   0.520564  -0.333723   0.458174
     35       0.065581   0.051875  -0.111904   0.211870   0.002297   0.019255
     36      -0.026526  -0.161956   0.022860  -0.072574   0.052729  -0.194255
     37       0.066600   0.054625  -0.035377  -0.039752  -0.019591   0.200387
     38       0.089360   0.067641  -0.040228  -0.059502  -0.024132   0.397309
     39       0.360386  -0.100432  -0.133083   0.309969  -0.000544  -0.075571
     40       0.039608   0.010197   0.216128  -0.522432   0.008596   0.331117
     41       0.080624   0.011161   0.036553  -0.123861   0.014079  -0.010187
                 30         31         32         33         34         35    
      0       0.000209   0.021137   0.039181   0.032675  -0.002503  -0.031062
      1       0.064674  -0.054137  -0.104234  -0.143014  -0.000496   0.055194
      2      -0.065143   0.024743   0.047750   0.047077   0.003001  -0.015680
      3      -0.090200  -0.013509  -0.044679  -0.108960   0.026190  -0.000863
      4       0.096042   0.051554   0.117403   0.232485   0.021516  -0.006256
      5       0.049175  -0.014265  -0.024735  -0.002986  -0.076220   0.006035
      6       0.038838  -0.004879  -0.000809   0.049495   0.002054   0.000317
      7      -0.053566  -0.003891  -0.020149  -0.064989  -0.002297  -0.000019
      8      -0.021175   0.004026   0.000985  -0.022702  -0.000872  -0.000336
      9       0.023767   0.022658   0.030462   0.002134  -0.001022  -0.000522
     10      -0.008604  -0.125284   0.010699   0.128878  -0.000272  -0.000400
     11       0.013162   0.053662  -0.015860  -0.022007  -0.000051   0.001757
     12       0.003574   0.011217  -0.046009   0.077672  -0.000173   0.003117
     13      -0.025840   0.067889   0.073830  -0.251374   0.000018   0.003200
     14      -0.000133  -0.029019   0.038156  -0.031339   0.000076  -0.011184
     15      -0.001068  -0.027404   0.043504  -0.083486  -0.000384   0.004727
     16      -0.018485   0.020168  -0.110774   0.147131  -0.000136  -0.015066
     17      -0.015064   0.030467  -0.066309   0.066238   0.000140  -0.007690
     18      -0.037138   0.020867   0.027063   0.048084   0.040127   0.489810
     19      -0.369043   0.076758   0.113240   0.028736  -0.036515  -0.515564
     20       0.525766  -0.180480  -0.314000  -0.227395  -0.031669  -0.347609
     21       0.279342  -0.137273  -0.236513  -0.174907  -0.000881  -0.130475
     22      -0.350759   0.160987   0.279415   0.259503   0.002645  -0.075480
     23      -0.054947   0.024709   0.051202   0.083061   0.001584   0.504437
     24       0.168724   0.071499   0.160720   0.203743  -0.343458   0.013959
     25      -0.333804  -0.127411  -0.242483  -0.333234  -0.178803   0.012252
     26       0.056714  -0.025416  -0.041096  -0.034757   0.916014  -0.039115
     27      -0.032592   0.029408  -0.042324  -0.034491   0.001378   0.002649
     28       0.107640   0.271323  -0.107940   0.004522  -0.001034  -0.004654
     29      -0.201464  -0.536382   0.096290   0.155353   0.000367  -0.002683
     30      -0.136145  -0.268834  -0.017620   0.068816   0.003837   0.001940
     31       0.179692   0.534267  -0.047231  -0.253787   0.000410   0.002320
     32       0.017785   0.122803  -0.031201  -0.086210  -0.000676  -0.015841
     33      -0.012349   0.042501   0.026963  -0.081627  -0.000413  -0.043579
     34       0.041045  -0.113782  -0.166492   0.334426  -0.000112  -0.020328
     35       0.004310  -0.054321   0.037349  -0.002975   0.000523   0.139909
     36      -0.068273   0.115450  -0.122731   0.068261   0.000312  -0.009154
     37       0.075920  -0.084586   0.116388   0.020098   0.002231   0.178396
     38       0.201025  -0.227118   0.483170  -0.285970   0.000584  -0.080605
     39      -0.018754   0.035817  -0.050332   0.069367   0.003055  -0.037012
     40       0.215152  -0.181430   0.530708  -0.388417   0.001807  -0.013602
     41       0.001425   0.030777  -0.047150   0.080229  -0.002419   0.165710
                 36         37         38         39         40         41    
      0      -0.009667   0.001594  -0.002205   0.001796   0.003091   0.043346
      1       0.016400  -0.001574   0.003394  -0.000649  -0.001331  -0.017598
      2      -0.004883   0.000373  -0.000895  -0.003740  -0.006070  -0.086208
      3      -0.000515   0.000451  -0.000096   0.000045  -0.000330   0.001950
      4      -0.001237  -0.000299  -0.000485  -0.000104   0.000218  -0.000568
      5       0.001857  -0.000346   0.000250  -0.000101  -0.000298  -0.003476
      6       0.000668  -0.000383  -0.000092  -0.000017   0.000055  -0.000190
      7      -0.000245   0.000404   0.000267   0.000200   0.000207   0.000028
      8      -0.000191  -0.000129  -0.000254   0.000087   0.000556   0.000269
      9       0.000609   0.011212   0.007481   0.002907   0.034915  -0.002900
     10       0.003260  -0.035493  -0.036960  -0.003360  -0.044581   0.003301
     11      -0.009979   0.024552   0.035553  -0.005546  -0.080312   0.005948
     12      -0.015350  -0.016295   0.013551  -0.003177   0.003164  -0.000061
     13      -0.010320  -0.001709   0.006190  -0.001409   0.002142   0.000210
     14       0.050597   0.046168  -0.037785   0.009426  -0.009617   0.000269
     15      -0.010025   0.009099  -0.010738  -0.009487   0.000267   0.000619
     16       0.039648  -0.021127   0.026631  -0.057446   0.003845   0.002133
     17       0.018617  -0.022611   0.022784   0.079463  -0.004759  -0.002276
     18       0.152176  -0.020617   0.033484  -0.014242  -0.024172  -0.333362
     19      -0.158058   0.020629  -0.033527   0.015382   0.025681   0.354688
     20      -0.106859   0.013337  -0.022264   0.010100   0.016524   0.226143
     21      -0.040988   0.003222  -0.007447  -0.009267  -0.013513  -0.193207
     22      -0.023062   0.002286  -0.004468  -0.006204  -0.009738  -0.134929
     23       0.154562  -0.015600   0.028554   0.029041   0.056630   0.799394
     24       0.004694  -0.000580   0.002457   0.000825  -0.002385  -0.010125
     25       0.003989  -0.000546   0.001012   0.000501  -0.000692  -0.005969
     26      -0.012008   0.002558  -0.003388  -0.001767   0.003866   0.031118
     27       0.001445  -0.192297  -0.167799  -0.029142  -0.346719   0.025829
     28      -0.002693   0.326204   0.289753   0.048734   0.605830  -0.045376
     29      -0.003441   0.229780   0.201367   0.031803   0.399233  -0.029801
     30      -0.013146   0.063165   0.076012  -0.002990  -0.064947   0.004942
     31      -0.017260   0.075494   0.092700  -0.002873  -0.095625   0.006839
     32       0.116952  -0.511166  -0.604355   0.031014   0.556621  -0.040969
     33       0.189343   0.168320  -0.130448   0.030736  -0.030209  -0.001035
     34       0.087162   0.074882  -0.058802   0.012273  -0.016046   0.000001
     35      -0.608573  -0.537839   0.414912  -0.100772   0.101025   0.000598
     36       0.019204  -0.010430   0.013714  -0.032359   0.002456   0.000600
     37      -0.490099   0.239315  -0.304451   0.642905  -0.038975  -0.025419
     38       0.219427  -0.108936   0.134739  -0.268919   0.016677   0.010224
     39       0.093101  -0.076931   0.086261   0.151029  -0.011213  -0.002456
     40       0.034929  -0.027324   0.028199   0.036407  -0.000581  -0.001078
     41      -0.426795   0.356346  -0.382726  -0.679207   0.044741   0.020708


-----------
IR SPECTRUM
-----------

 Mode   freq       eps      Int      T**2         TX        TY        TZ
       cm**-1   L/(mol*cm) km/mol    a.u.
----------------------------------------------------------------------------
  7:    169.34   0.000595    3.00  0.001096  ( 0.004912  0.017803 -0.027470)
  8:    269.73   0.003997   20.20  0.004625  (-0.061466 -0.028496 -0.005870)
  9:    311.60   0.000414    2.09  0.000414  (-0.013784 -0.014858  0.001885)
 10:    379.41   0.000221    1.12  0.000182  (-0.007462  0.011039  0.002069)
 11:    426.87   0.001292    6.53  0.000944  ( 0.012848  0.024536  0.013315)
 12:    464.40   0.000085    0.43  0.000057  ( 0.005627 -0.002132 -0.004557)
 13:    529.83   0.002540   12.84  0.001496  (-0.016843 -0.032759  0.011803)
 14:    737.71   0.005106   25.80  0.002160  ( 0.046399 -0.002571  0.000588)
 15:    808.28   0.000951    4.81  0.000367  (-0.015830 -0.010633  0.001894)
 16:    875.68   0.007232   36.55  0.002577  (-0.032988 -0.037379 -0.009585)
 17:    898.16   0.001147    5.80  0.000398  (-0.014123 -0.007445 -0.011983)
 18:    962.59   0.000078    0.40  0.000025  ( 0.003514  0.003397 -0.001229)
 19:    995.49   0.004465   22.57  0.001400  ( 0.033658  0.014908 -0.006687)
 20:   1001.96   0.001152    5.82  0.000359  ( 0.009938 -0.013209 -0.009244)
 21:   1011.69   0.001946    9.84  0.000600  (-0.023963 -0.004009 -0.003173)
 22:   1037.40   0.000319    1.61  0.000096  ( 0.004144  0.008589  0.002255)
 23:   1057.21   0.000317    1.60  0.000094  (-0.004718 -0.008306  0.001544)
 24:   1091.12   0.000361    1.82  0.000103  ( 0.004661  0.001872  0.008826)
 25:   1266.33   0.002097   10.60  0.000517  (-0.021961  0.004464 -0.003826)
 26:   1276.06   0.002596   13.12  0.000635  (-0.018195 -0.007655  0.015660)
 27:   1301.43   0.000029    0.15  0.000007  ( 0.001325 -0.001570 -0.001680)
 28:   1357.96   0.002545   12.86  0.000585  (-0.003173  0.020195  0.012922)
 29:   1449.59   0.001921    9.71  0.000414  (-0.014321  0.014417 -0.000811)
 30:   1490.49   0.001914    9.67  0.000401  (-0.009007  0.011836  0.013400)
 31:   1550.40   0.001639    8.28  0.000330  ( 0.011659  0.003195 -0.013558)
 32:   1564.21   0.001886    9.53  0.000376  ( 0.014370  0.012433  0.003909)
 33:   1637.07   0.007951   40.18  0.001516  (-0.013799  0.036306  0.002657)
 34:   2990.58   0.019543   98.76  0.002039  ( 0.027401  0.010777 -0.034239)
 35:   3165.55   0.001256    6.35  0.000124  (-0.010136  0.003852 -0.002506)
 36:   3167.80   0.003435   17.36  0.000338  (-0.011934  0.008329  0.011252)
 37:   3172.13   0.002595   13.11  0.000255  ( 0.000964 -0.013254  0.008871)
 38:   3175.33   0.000877    4.43  0.000086  ( 0.007756 -0.000939  0.005016)
 39:   3250.05   0.001380    6.98  0.000133  (-0.000539 -0.006089  0.009755)
 40:   3260.05   0.002093   10.58  0.000200  ( 0.004518 -0.004950 -0.012466)
 41:   3262.88   0.001505    7.61  0.000144  ( 0.004774 -0.003403 -0.010467)

* The epsilon (eps) is given for a Dirac delta lineshape.
** The dipole moment derivative (T) already includes vibrational overlap.

The first frequency considered to be a vibration is 7
The total number of vibrations considered is 35


--------------------------
THERMOCHEMISTRY AT 298.15K
--------------------------

Temperature         ... 298.15 K
Pressure            ... 1.00 atm
Total Mass          ... 84.12 AMU

Throughout the following assumptions are being made:
  (1) The electronic state is orbitally nondegenerate
  (2) There are no thermally accessible electronically excited states
  (3) Hindered rotations indicated by low frequency modes are not
      treated as such but are treated as vibrations and this may
      cause some error
  (4) All equations used are the standard statistical mechanics
      equations for an ideal gas
  (5) All vibrations are strictly harmonic

freq.     169.34  E(vib)   ...       0.38 
freq.     269.73  E(vib)   ...       0.29 
freq.     311.60  E(vib)   ...       0.25 
freq.     379.41  E(vib)   ...       0.21 
freq.     426.87  E(vib)   ...       0.18 
freq.     464.40  E(vib)   ...       0.16 
freq.     529.83  E(vib)   ...       0.13 
freq.     737.71  E(vib)   ...       0.06 
freq.     808.28  E(vib)   ...       0.05 
freq.     875.68  E(vib)   ...       0.04 
freq.     898.16  E(vib)   ...       0.03 
freq.     962.59  E(vib)   ...       0.03 
freq.     995.49  E(vib)   ...       0.02 
freq.    1001.96  E(vib)   ...       0.02 
freq.    1011.69  E(vib)   ...       0.02 
freq.    1037.40  E(vib)   ...       0.02 
freq.    1057.21  E(vib)   ...       0.02 
freq.    1091.12  E(vib)   ...       0.02 
freq.    1266.33  E(vib)   ...       0.01 
freq.    1276.06  E(vib)   ...       0.01 
freq.    1301.43  E(vib)   ...       0.01 
freq.    1357.96  E(vib)   ...       0.01 
freq.    1449.59  E(vib)   ...       0.00 
freq.    1490.49  E(vib)   ...       0.00 
freq.    1550.40  E(vib)   ...       0.00 
freq.    1564.21  E(vib)   ...       0.00 
freq.    1637.07  E(vib)   ...       0.00 
freq.    2990.58  E(vib)   ...       0.00 
freq.    3165.55  E(vib)   ...       0.00 
freq.    3167.80  E(vib)   ...       0.00 
freq.    3172.13  E(vib)   ...       0.00 
freq.    3175.33  E(vib)   ...       0.00 
freq.    3250.05  E(vib)   ...       0.00 
freq.    3260.05  E(vib)   ...       0.00 
freq.    3262.88  E(vib)   ...       0.00 

------------
INNER ENERGY
------------

The inner energy is: U= E(el) + E(ZPE) + E(vib) + E(rot) + E(trans)
    E(el)   - is the total energy from the electronic structure calculation
              = E(kin-el) + E(nuc-el) + E(el-el) + E(nuc-nuc)
    E(ZPE)  - the the zero temperature vibrational energy from the frequency calculation
    E(vib)  - the the finite temperature correction to E(ZPE) due to population
              of excited vibrational states
    E(rot)  - is the rotational thermal energy
    E(trans)- is the translational thermal energy

Summary of contributions to the inner energy U:
Electronic energy                ...   -270.28713490 Eh
Zero point energy                ...      0.11702127 Eh      73.43 kcal/mol
Thermal vibrational correction   ...      0.00313842 Eh       1.97 kcal/mol
Thermal rotational correction    ...      0.00141627 Eh       0.89 kcal/mol
Thermal translational correction ...      0.00141627 Eh       0.89 kcal/mol
-----------------------------------------------------------------------
Total thermal energy                   -270.16414267 Eh


Summary of corrections to the electronic energy:
(perhaps to be used in another calculation)
Total thermal correction                  0.00597097 Eh       3.75 kcal/mol
Non-thermal (ZPE) correction              0.11702127 Eh      73.43 kcal/mol
-----------------------------------------------------------------------
Total correction                          0.12299223 Eh      77.18 kcal/mol


--------
ENTHALPY
--------

The enthalpy is H = U + kB*T
                kB is Boltzmann's constant
Total free energy                 ...   -270.16414267 Eh 
Thermal Enthalpy correction       ...      0.00094421 Eh       0.59 kcal/mol
-----------------------------------------------------------------------
Total Enthalpy                    ...   -270.16319846 Eh


Note: Only C1 symmetry has been detected, increase convergence thresholds 
      if your molecule has a higher symmetry. Symmetry factor of 1.0 is   
      used for the rotational entropy correction. 
 

Note: Rotational entropy computed according to Herzberg 
Infrared and Raman Spectra, Chapter V,1, Van Nostrand Reinhold, 1945 
Point Group:  C1, Symmetry Number:   1  
Rotational constants in cm-1:     0.160294     0.129507     0.081639 

Vibrational entropy computed according to the QRRHO of S. Grimme
Chem.Eur.J. 2012 18 9955


-------
ENTROPY
-------

The entropy contributions are T*S = T*(S(el)+S(vib)+S(rot)+S(trans))
     S(el)   - electronic entropy
     S(vib)  - vibrational entropy
     S(rot)  - rotational entropy
     S(trans)- translational entropy
The entropies will be listed as multiplied by the temperature to get
units of energy

Electronic entropy                ...      0.00000000 Eh      0.00 kcal/mol
Vibrational entropy               ...      0.00483542 Eh      3.03 kcal/mol
Rotational entropy                ...      0.01252285 Eh      7.86 kcal/mol
Translational entropy             ...      0.01862630 Eh     11.69 kcal/mol
-----------------------------------------------------------------------
Final entropy term                ...      0.03598457 Eh     22.58 kcal/mol

In case the symmetry of your molecule has not been determined correctly
or in case you have a reason to use a different symmetry number we print 
out the resulting rotational entropy values for sn=1,12 :
 --------------------------------------------------------
|  sn= 1 | S(rot)=       0.01252285 Eh      7.86 kcal/mol|
|  sn= 2 | S(rot)=       0.01186839 Eh      7.45 kcal/mol|
|  sn= 3 | S(rot)=       0.01148556 Eh      7.21 kcal/mol|
|  sn= 4 | S(rot)=       0.01121394 Eh      7.04 kcal/mol|
|  sn= 5 | S(rot)=       0.01100325 Eh      6.90 kcal/mol|
|  sn= 6 | S(rot)=       0.01083110 Eh      6.80 kcal/mol|
|  sn= 7 | S(rot)=       0.01068556 Eh      6.71 kcal/mol|
|  sn= 8 | S(rot)=       0.01055948 Eh      6.63 kcal/mol|
|  sn= 9 | S(rot)=       0.01044827 Eh      6.56 kcal/mol|
|  sn=10 | S(rot)=       0.01034879 Eh      6.49 kcal/mol|
|  sn=11 | S(rot)=       0.01025880 Eh      6.44 kcal/mol|
|  sn=12 | S(rot)=       0.01017665 Eh      6.39 kcal/mol|
 --------------------------------------------------------


-------------------
GIBBS FREE ENERGY
-------------------

The Gibbs free energy is G = H - T*S

Total enthalpy                    ...   -270.16319846 Eh 
Total entropy correction          ...     -0.03598457 Eh    -22.58 kcal/mol
-----------------------------------------------------------------------
Final Gibbs free energy         ...   -270.19918303 Eh

For completeness - the Gibbs free energy minus the electronic energy
G-E(el)                           ...      0.08795187 Eh     55.19 kcal/mol


Timings for individual modules:

Sum of individual times         ...       88.576 sec (=   1.476 min)
GTO integral calculation        ...        3.493 sec (=   0.058 min)   3.9 %
SCF iterations                  ...       50.844 sec (=   0.847 min)  57.4 %
SCF Gradient evaluation         ...       15.826 sec (=   0.264 min)  17.9 %
Geometry relaxation             ...        0.173 sec (=   0.003 min)   0.2 %
Analytical frequency calculation...       18.238 sec (=   0.304 min)  20.6 %
                             ****ORCA TERMINATED NORMALLY****
TOTAL RUN TIME: 0 days 0 hours 1 minutes 31 seconds 215 msec
