
                                 *****************
                                 * O   R   C   A *
                                 *****************

                                            #,                                       
                                            ###                                      
                                            ####                                     
                                            #####                                    
                                            ######                                   
                                           ########,                                 
                                     ,,################,,,,,                         
                               ,,#################################,,                 
                          ,,##########################################,,             
                       ,#########################################, ''#####,          
                    ,#############################################,,   '####,        
                  ,##################################################,,,,####,       
                ,###########''''           ''''###############################       
              ,#####''   ,,,,##########,,,,          '''####'''          '####       
            ,##' ,,,,###########################,,,                        '##       
           ' ,,###''''                  '''############,,,                           
         ,,##''                                '''############,,,,        ,,,,,,###''
      ,#''                                            '''#######################'''  
     '                                                          ''''####''''         
             ,#######,   #######,   ,#######,      ##                                
            ,#'     '#,  ##    ##  ,#'     '#,    #''#        ######   ,####,        
            ##       ##  ##   ,#'  ##            #'  '#       #        #'  '#        
            ##       ##  #######   ##           ,######,      #####,   #    #        
            '#,     ,#'  ##    ##  '#,     ,#' ,#      #,         ##   #,  ,#        
             '#######'   ##     ##  '#######'  #'      '#     #####' # '####'        



                  #######################################################
                  #                        -***-                        #
                  #          Department of theory and spectroscopy      #
                  #    Directorship and core code : Frank Neese         #
                  #        Max Planck Institute fuer Kohlenforschung    #
                  #                Kaiser Wilhelm Platz 1               #
                  #                 D-45470 Muelheim/Ruhr               #
                  #                      Germany                        #
                  #                                                     #
                  #                  All rights reserved                #
                  #                        -***-                        #
                  #######################################################


                         Program Version 5.0.1 -  RELEASE  -


 With contributions from (in alphabetic order):
   Daniel Aravena         : Magnetic Suceptibility
   Michael Atanasov       : Ab Initio Ligand Field Theory (pilot matlab implementation)
   Alexander A. Auer      : GIAO ZORA, VPT2 properties, NMR spectrum
   Ute Becker             : Parallelization
   Giovanni Bistoni       : ED, misc. LED, open-shell LED, HFLD
   Martin Brehm           : Molecular dynamics
   Dmytro Bykov           : SCF Hessian
   Vijay G. Chilkuri      : MRCI spin determinant printing, contributions to CSF-ICE
   Dipayan Datta          : RHF DLPNO-CCSD density
   Achintya Kumar Dutta   : EOM-CC, STEOM-CC
   Dmitry Ganyushin       : Spin-Orbit,Spin-Spin,Magnetic field MRCI
   Miquel Garcia          : C-PCM and meta-GGA Hessian, CC/C-PCM, Gaussian charge scheme
   Yang Guo               : DLPNO-NEVPT2, F12-NEVPT2, CIM, IAO-localization
   Andreas Hansen         : Spin unrestricted coupled pair/coupled cluster methods
   Benjamin Helmich-Paris : MC-RPA, TRAH-SCF, COSX integrals
   Lee Huntington         : MR-EOM, pCC
   Robert Izsak           : Overlap fitted RIJCOSX, COSX-SCS-MP3, EOM
   Marcus Kettner         : VPT2
   Christian Kollmar      : KDIIS, OOCD, Brueckner-CCSD(T), CCSD density, CASPT2, CASPT2-K
   Simone Kossmann        : Meta GGA functionals, TD-DFT gradient, OOMP2, MP2 Hessian
   Martin Krupicka        : Initial AUTO-CI
   Lucas Lang             : DCDCAS
   Marvin Lechner         : AUTO-CI (C++ implementation), FIC-MRCC
   Dagmar Lenk            : GEPOL surface, SMD
   Dimitrios Liakos       : Extrapolation schemes; Compound Job, initial MDCI parallelization
   Dimitrios Manganas     : Further ROCIS development; embedding schemes
   Dimitrios Pantazis     : SARC Basis sets
   Anastasios Papadopoulos: AUTO-CI, single reference methods and gradients
   Taras Petrenko         : DFT Hessian,TD-DFT gradient, ASA, ECA, R-Raman, ABS, FL, XAS/XES, NRVS
   Peter Pinski           : DLPNO-MP2, DLPNO-MP2 Gradient
   Christoph Reimann      : Effective Core Potentials
   Marius Retegan         : Local ZFS, SOC
   Christoph Riplinger    : Optimizer, TS searches, QM/MM, DLPNO-CCSD(T), (RO)-DLPNO pert. Triples
   Tobias Risthaus        : Range-separated hybrids, TD-DFT gradient, RPA, STAB
   Michael Roemelt        : Original ROCIS implementation
   Masaaki Saitow         : Open-shell DLPNO-CCSD energy and density
   Barbara Sandhoefer     : DKH picture change effects
   Avijit Sen             : IP-ROCIS
   Kantharuban Sivalingam : CASSCF convergence, NEVPT2, FIC-MRCI
   Bernardo de Souza      : ESD, SOC TD-DFT
   Georgi Stoychev        : AutoAux, RI-MP2 NMR, DLPNO-MP2 response
   Willem Van den Heuvel  : Paramagnetic NMR
   Boris Wezisla          : Elementary symmetry handling
   Frank Wennmohs         : Technical directorship


 We gratefully acknowledge several colleagues who have allowed us to
 interface, adapt or use parts of their codes:
   Stefan Grimme, W. Hujo, H. Kruse, P. Pracht,  : VdW corrections, initial TS optimization,
                  C. Bannwarth, S. Ehlert          DFT functionals, gCP, sTDA/sTD-DF
   Ed Valeev, F. Pavosevic, A. Kumar             : LibInt (2-el integral package), F12 methods
   Garnet Chan, S. Sharma, J. Yang, R. Olivares  : DMRG
   Ulf Ekstrom                                   : XCFun DFT Library
   Mihaly Kallay                                 : mrcc  (arbitrary order and MRCC methods)
   Jiri Pittner, Ondrej Demel                    : Mk-CCSD
   Frank Weinhold                                : gennbo (NPA and NBO analysis)
   Christopher J. Cramer and Donald G. Truhlar   : smd solvation model
   Lars Goerigk                                  : TD-DFT with DH, B97 family of functionals
   V. Asgeirsson, H. Jonsson                     : NEB implementation
   FAccTs GmbH                                   : IRC, NEB, NEB-TS, DLPNO-Multilevel, CI-OPT
                                                   MM, QMMM, 2- and 3-layer-ONIOM, Crystal-QMMM,
                                                   LR-CPCM, SF, NACMEs, symmetry and pop. for TD-DFT,
                                                   nearIR, NL-DFT gradient (VV10), updates on ESD,
                                                   ML-optimized integration grids
   S Lehtola, MJT Oliveira, MAL Marques          : LibXC Library
   Liviu Ungur et al                             : ANISO software


 Your calculation uses the libint2 library for the computation of 2-el integrals
 For citations please refer to: http://libint.valeyev.net

 Your ORCA version has been built with support for libXC version: 5.1.0
 For citations please refer to: https://tddft.org/programs/libxc/

 This ORCA versions uses:
   CBLAS   interface :  Fast vector & matrix operations
   LAPACKE interface :  Fast linear algebra routines
   SCALAPACK package :  Parallel linear algebra routines
   Shared memory     :  Shared parallel matrices
   BLAS/LAPACK       :  OpenBLAS 0.3.15  USE64BITINT DYNAMIC_ARCH NO_AFFINITY SkylakeX SINGLE_THREADED
        Core in use  :  SkylakeX
   Copyright (c) 2011-2014, The OpenBLAS Project


================================================================================

----- Orbital basis set information -----
Your calculation utilizes the basis: 6-31G(d)
   H-He, Li-Ne : W. J. Hehre, R. Ditchfield and J.A. Pople, J. Chem. Phys. 56, 2257 (1972).
                 Note: He and Ne are unpublished basis sets taken from the Gaussian program.
                 Note: Li and B from J. D. Dill and J. A. Pople, J. Chem. Phys. 62, 2921 (1975).
   Na - Ar     : M. M. Francl, W. J. Pietro, W. J. Hehre, J. S. Binkley, M. S. Gordon, 
                 D. J. DeFrees and J. A. Pople, J. Chem. Phys. 77, 3654 (1982).
   K - Zn      : V. A. Rassolov, J. A. Pople, M. A. Ratner, and T. L. Windus, J. Chem. Phys. 109, 1223 (1998).

----- AuxJ basis set information -----
Your calculation utilizes the auxiliary basis: def2/J
   F. Weigend, Phys. Chem. Chem. Phys. 8, 1057 (2006).

================================================================================
                                        WARNINGS
                       Please study these warnings very carefully!
================================================================================

WARNING: Old DensityContainer found on disk!
         Will remove this file - 
         If you want to keep old densities, please start your calculation with a different basename. 


WARNING: Geometry Optimization
  ===> : Switching off AutoStart
         For restart on a previous wavefunction, please use MOREAD

INFO   : the flag for use of the SHARK integral package has been found!

================================================================================
                                       INPUT FILE
================================================================================
NAME = claisen_ts_QRCR.inp
|  1> 
|  2> ! pal8 opt freq b3lyp 6-31G(d)
|  3> %geom maxiter 500 end
|  4> 
|  5> # claisen_ts_QRCR
|  6> 
|  7> * xyz 0 1
|  8>  C  -1.36347090   0.83571390  -0.26951830
|  9>  C  -1.29328830  -0.49393210   0.26010870
| 10>  O  -0.61478850  -1.38440980  -0.26343350
| 11>  C   1.42538790  -0.86160260   0.20208550
| 12>  C   1.37954750   0.39685740  -0.30273620
| 13>  C   0.55513570   1.39981530   0.30324730
| 14>  H  -2.04348310   1.54741650   0.19735930
| 15>  H  -1.24390200   0.93702870  -1.35360820
| 16>  H  -1.68876130  -0.62574090   1.29191260
| 17>  H   1.85223250  -1.69297310  -0.34903860
| 18>  H   1.16403460  -1.06800630   1.24477020
| 19>  H   1.68315920   0.55496370  -1.33659200
| 20>  H   0.55729540   2.40656640  -0.10945550
| 21>  H   0.45766470   1.38044550   1.39457950
| 22> *
| 23> 
| 24>                          ****END OF INPUT****
================================================================================

                       *****************************
                       * Geometry Optimization Run *
                       *****************************

Geometry optimization settings:
Update method            Update   .... BFGS
Choice of coordinates    CoordSys .... Z-matrix Internals
Initial Hessian          InHess   .... Almoef's Model

Convergence Tolerances:
Energy Change            TolE     ....  5.0000e-06 Eh
Max. Gradient            TolMAXG  ....  3.0000e-04 Eh/bohr
RMS Gradient             TolRMSG  ....  1.0000e-04 Eh/bohr
Max. Displacement        TolMAXD  ....  4.0000e-03 bohr
RMS Displacement         TolRMSD  ....  2.0000e-03 bohr
Strict Convergence                ....  False
------------------------------------------------------------------------------
                        ORCA OPTIMIZATION COORDINATE SETUP
------------------------------------------------------------------------------

The optimization will be done in new redundant internal coordinates
Making redundant internal coordinates   ...  (new redundants) done
Evaluating the initial hessian          ...  (Almloef) done
Evaluating the coordinates              ...  done
Calculating the B-matrix                .... done
Calculating the G-matrix                .... done
Diagonalizing the G-matrix              .... done
The first mode is                       ....   90
The number of degrees of freedom        ....   36

    -----------------------------------------------------------------
                    Redundant Internal Coordinates


    -----------------------------------------------------------------
         Definition                    Initial Value    Approx d2E/dq
    -----------------------------------------------------------------
      1. B(C   1,C   0)                  1.4330         0.533569   
      2. B(O   2,C   1)                  1.2359         0.985730   
      3. B(C   3,O   2)                  2.1569         0.033441   
      4. B(C   4,C   3)                  1.3567         0.706069   
      5. B(C   4,O   2)                  2.6743         0.004999   
      6. B(C   5,C   0)                  2.0802         0.049492   
      7. B(C   5,C   4)                  1.4328         0.533975   
      8. B(C   5,C   1)                  2.6467         0.006178   
      9. B(H   6,C   0)                  1.0895         0.360822   
     10. B(H   6,C   5)                  2.6050         0.001378   
     11. B(H   7,C   0)                  1.0954         0.353079   
     12. B(H   7,C   5)                  2.4892         0.002109   
     13. B(H   8,C   1)                  1.1128         0.331130   
     14. B(H   9,O   2)                  2.4877         0.001899   
     15. B(H   9,C   3)                  1.0849         0.366846   
     16. B(H  10,O   2)                  2.3535         0.003110   
     17. B(H  10,C   3)                  1.0946         0.354095   
     18. B(H  11,C   4)                  1.0891         0.361356   
     19. B(H  12,C   0)                  2.4865         0.002130   
     20. B(H  12,H   7)                  2.6366         0.000235   
     21. B(H  12,C   5)                  1.0881         0.362675   
     22. B(H  13,C   0)                  2.5264         0.001840   
     23. B(H  13,C   5)                  1.0958         0.352447   
     24. A(C   5,C   0,H   7)           98.4383         0.237263   
     25. A(H   6,C   0,H   7)          115.5847         0.290033   
     26. A(C   5,C   0,H   6)          106.2925         0.237993   
     27. A(C   1,C   0,H   6)          118.5773         0.344208   
     28. A(C   1,C   0,H   7)          116.5052         0.342958   
     29. A(C   1,C   0,C   5)           96.0089         0.277217   
     30. A(O   2,C   1,C   5)           97.9918         0.222924   
     31. A(C   0,C   1,H   8)          115.7974         0.339295   
     32. A(C   0,C   1,O   2)          122.6079         0.456395   
     33. A(C   5,C   1,H   8)          108.5318         0.180239   
     34. A(C   0,C   1,C   5)           51.4129         0.206520   
     35. A(O   2,C   1,H   8)          120.1677         0.374232   
     36. A(C   1,O   2,C   3)          104.6677         0.283662   
     37. A(C   1,O   2,C   4)           86.3146         0.215608   
     38. A(C   3,O   2,C   4)           30.2711         0.147866   
     39. A(O   2,C   3,H   9)           94.4024         0.224728   
     40. A(O   2,C   3,C   4)           96.4632         0.271000   
     41. A(H   9,C   3,H  10)          115.6792         0.290919   
     42. A(C   4,C   3,H  10)          121.4193         0.359757   
     43. A(C   4,C   3,H   9)          122.3483         0.361933   
     44. A(O   2,C   3,H  10)           86.2180         0.223646   
     45. A(C   5,C   4,H  11)          117.4064         0.344337   
     46. A(C   3,C   4,H  11)          118.5860         0.361003   
     47. A(O   2,C   4,H  11)          108.5754         0.176976   
     48. A(O   2,C   4,C   5)           91.7732         0.200119   
     49. A(O   2,C   4,C   3)           53.2656         0.207372   
     50. A(C   3,C   4,C   5)          120.7565         0.432556   
     51. A(H  12,C   5,H  13)          113.2204         0.290185   
     52. A(C   0,C   5,C   1)           32.5781         0.157610   
     53. A(C   4,C   5,H  13)          117.3879         0.342898   
     54. A(C   1,C   5,H  13)           86.6443         0.181536   
     55. A(C   1,C   5,H  12)          131.0910         0.182137   
     56. A(C   4,C   5,H  12)          119.0872         0.344548   
     57. A(C   1,C   5,C   4)           83.9202         0.206541   
     58. A(C   0,C   5,H  13)          100.7997         0.237203   
     59. A(C   0,C   5,H  12)           98.5286         0.238165   
     60. A(C   0,C   5,C   4)          102.9686         0.277249   
     61. D(C   5,C   1,C   0,H   6)   -112.2446         0.025503   
     62. D(H   8,C   1,C   0,H   6)    -18.4641         0.025503   
     63. D(O   2,C   1,C   0,C   5)    -72.5846         0.025503   
     64. D(O   2,C   1,C   0,H   6)    175.1708         0.025503   
     65. D(H   8,C   1,C   0,C   5)     93.7805         0.025503   
     66. D(O   2,C   1,C   0,H   7)     29.9706         0.025503   
     67. D(C   5,C   1,C   0,H   7)    102.5552         0.025503   
     68. D(H   8,C   1,C   0,H   7)   -163.6643         0.025503   
     69. D(C   4,O   2,C   1,C   0)     48.9270         0.110190   
     70. D(C   3,O   2,C   1,C   5)     24.3566         0.110190   
     71. D(C   4,O   2,C   1,H   8)   -116.8622         0.110190   
     72. D(C   3,O   2,C   1,H   8)    -92.5691         0.110190   
     73. D(C   3,O   2,C   1,C   0)     73.2201         0.110190   
     74. D(C   4,O   2,C   1,C   5)      0.0635         0.110190   
     75. D(H  10,C   3,O   2,C   4)    121.2175         0.001582   
     76. D(C   4,C   3,O   2,C   1)    -54.5322         0.001582   
     77. D(H  10,C   3,O   2,C   1)     66.6852         0.001582   
     78. D(H   9,C   3,O   2,C   4)   -123.2849         0.001582   
     79. D(H   9,C   3,O   2,C   1)   -177.8171         0.001582   
     80. D(H  11,C   4,C   3,H   9)      6.7557         0.041162   
     81. D(H  11,C   4,O   2,C   1)   -119.8672         0.001502   
     82. D(H  11,C   4,O   2,C   3)    112.2747         0.001502   
     83. D(C   5,C   4,C   3,H   9)    165.8647         0.041162   
     84. D(C   5,C   4,O   2,C   3)   -127.9743         0.001502   
     85. D(C   5,C   4,C   3,H  10)    -23.0357         0.041162   
     86. D(C   5,C   4,O   2,C   1)     -0.1162         0.001502   
     87. D(C   5,C   4,C   3,O   2)     66.4724         0.041162   
     88. D(C   3,C   4,O   2,C   1)    127.8581         0.001502   
     89. D(H  11,C   4,C   3,O   2)    -92.6366         0.041162   
     90. D(O   2,C   4,C   3,H   9)     99.3923         0.041162   
     91. D(H  11,C   4,C   3,H  10)    177.8553         0.041162   
     92. D(O   2,C   4,C   3,H  10)    -89.5081         0.041162   
     93. D(C   0,C   5,C   4,H  11)     85.4793         0.026886   
     94. D(C   0,C   5,C   4,C   3)    -73.8676         0.026886   
     95. D(H  13,C   5,C   4,O   2)     83.0769         0.026886   
     96. D(H  13,C   5,C   4,C   3)     35.7574         0.026886   
     97. D(H  12,C   5,C   4,O   2)   -134.1415         0.026886   
     98. D(H  12,C   5,C   4,H  11)    -22.1141         0.026886   
     99. D(C   0,C   5,C   1,H   8)   -108.6463         0.001503   
    100. D(C   0,C   5,C   1,O   2)    125.7429         0.001503   
    101. D(H  13,C   5,C   1,H   8)      7.4800         0.001503   
    102. D(H  13,C   5,C   1,O   2)   -118.1308         0.001503   
    103. D(H  13,C   5,C   1,C   0)    116.1263         0.001503   
    104. D(H  12,C   5,C   1,H   8)   -110.7426         0.001503   
    105. D(H  12,C   5,C   1,O   2)    123.6466         0.001503   
    106. D(H  12,C   5,C   1,C   0)     -2.0963         0.001503   
    107. D(C   4,C   5,C   1,H   8)    125.4919         0.001503   
    108. D(C   4,C   5,C   1,O   2)     -0.1189         0.001503   
    109. D(C   4,C   5,C   1,C   0)   -125.8618         0.001503   
    110. D(C   1,C   5,C   0,H   7)   -117.9870         0.001692   
    111. D(C   1,C   5,C   0,H   6)    122.1323         0.001692   
    112. D(H  13,C   5,C   0,H   7)    176.1673         0.001692   
    113. D(H  13,C   5,C   0,H   6)     56.2866         0.001692   
    114. D(H  12,C   5,C   4,C   3)    178.5390         0.026886   
    115. D(H  13,C   5,C   0,C   1)    -65.8457         0.001692   
    116. D(H  12,C   5,C   0,H   7)     60.4155         0.001692   
    117. D(H  12,C   5,C   0,H   6)    -59.4652         0.001692   
    118. D(H  13,C   5,C   4,H  11)   -164.8957         0.026886   
    119. D(H  12,C   5,C   0,C   1)    178.4025         0.001692   
    120. D(C   4,C   5,C   0,H   7)    -62.1985         0.001692   
    121. D(C   4,C   5,C   0,H   6)    177.9207         0.001692   
    122. D(C   0,C   5,C   4,O   2)    -26.5481         0.026886   
    123. D(C   1,C   5,C   4,O   2)      0.0544         0.026886   
    124. D(C   4,C   5,C   0,C   1)     55.7885         0.001692   
    125. D(C   1,C   5,C   4,H  11)    112.0818         0.026886   
    126. D(C   1,C   5,C   4,C   3)    -47.2651         0.026886   
    -----------------------------------------------------------------

Number of atoms                         .... 14
Number of degrees of freedom            .... 126

         *************************************************************
         *                GEOMETRY OPTIMIZATION CYCLE   1            *
         *************************************************************
---------------------------------
CARTESIAN COORDINATES (ANGSTROEM)
---------------------------------
  C     -1.363471    0.835714   -0.269518
  C     -1.293288   -0.493932    0.260109
  O     -0.614788   -1.384410   -0.263433
  C      1.425388   -0.861603    0.202085
  C      1.379547    0.396857   -0.302736
  C      0.555136    1.399815    0.303247
  H     -2.043483    1.547416    0.197359
  H     -1.243902    0.937029   -1.353608
  H     -1.688761   -0.625741    1.291913
  H      1.852232   -1.692973   -0.349039
  H      1.164035   -1.068006    1.244770
  H      1.683159    0.554964   -1.336592
  H      0.557295    2.406566   -0.109455
  H      0.457665    1.380445    1.394579

----------------------------
CARTESIAN COORDINATES (A.U.)
----------------------------
  NO LB      ZA    FRAG     MASS         X           Y           Z
   0 C     6.0000    0    12.011   -2.576587    1.579270   -0.509316
   1 C     6.0000    0    12.011   -2.443961   -0.933396    0.491534
   2 O     8.0000    0    15.999   -1.161782   -2.616155   -0.497817
   3 C     6.0000    0    12.011    2.693593   -1.628193    0.381886
   4 C     6.0000    0    12.011    2.606967    0.749952   -0.572089
   5 C     6.0000    0    12.011    1.049054    2.645268    0.573054
   6 H     1.0000    0     1.008   -3.861623    2.924193    0.372955
   7 H     1.0000    0     1.008   -2.350634    1.770728   -2.557949
   8 H     1.0000    0     1.008   -3.191296   -1.182479    2.441361
   9 H     1.0000    0     1.008    3.500212   -3.199256   -0.659587
  10 H     1.0000    0     1.008    2.199707   -2.018239    2.352275
  11 H     1.0000    0     1.008    3.180710    1.048729   -2.525793
  12 H     1.0000    0     1.008    1.053136    4.547751   -0.206841
  13 H     1.0000    0     1.008    0.864861    2.608664    2.635373

--------------------------------
INTERNAL COORDINATES (ANGSTROEM)
--------------------------------
 C      0   0   0     0.000000000000     0.00000000     0.00000000
 C      1   0   0     1.432965052535     0.00000000     0.00000000
 O      2   1   0     1.235883873177   122.60789156     0.00000000
 C      3   2   1     2.156931860502   104.66767856    73.22009571
 C      4   3   2     1.356712151734    96.46324470   305.46775608
 C      5   4   3     1.432757958423   120.75645243    66.47241524
 H      1   2   3     1.089454852840   118.57727972   175.17076272
 H      1   2   3     1.095359448687   116.50518381    29.97055963
 H      2   1   3     1.112830508901   115.79740033   166.36512761
 H      4   3   2     1.084947461594    94.40241702   182.18290289
 H      4   3   2     1.094577278409    86.21802982    66.68524212
 H      5   4   3     1.089052561482   118.58602775   267.36337858
 H      6   5   4     1.088060679734   119.08720332   178.53898057
 H      6   5   4     1.095847505700   117.38791742    35.75740063

---------------------------
INTERNAL COORDINATES (A.U.)
---------------------------
 C      0   0   0     0.000000000000     0.00000000     0.00000000
 C      1   0   0     2.707911508772     0.00000000     0.00000000
 O      2   1   0     2.335482053634   122.60789156     0.00000000
 C      3   2   1     4.076010505879   104.66767856    73.22009571
 C      4   3   2     2.563814409341    96.46324470   305.46775608
 C      5   4   3     2.707520157615   120.75645243    66.47241524
 H      1   2   3     2.058771307140   118.57727972   175.17076272
 H      1   2   3     2.069929376222   116.50518381    29.97055963
 H      2   1   3     2.102944895296   115.79740033   166.36512761
 H      4   3   2     2.050253572107    94.40241702   182.18290289
 H      4   3   2     2.068451288605    86.21802982    66.68524212
 H      5   4   3     2.058011086646   118.58602775   267.36337858
 H      6   5   4     2.056136701785   119.08720332   178.53898057
 H      6   5   4     2.070851670315   117.38791742    35.75740063

---------------------
BASIS SET INFORMATION
---------------------
There are 3 groups of distinct atoms

 Group   1 Type C   : 10s4p1d contracted to 3s2p1d pattern {631/31/1}
 Group   2 Type O   : 10s4p1d contracted to 3s2p1d pattern {631/31/1}
 Group   3 Type H   : 4s contracted to 2s pattern {31}

Atom   0C    basis set group =>   1
Atom   1C    basis set group =>   1
Atom   2O    basis set group =>   2
Atom   3C    basis set group =>   1
Atom   4C    basis set group =>   1
Atom   5C    basis set group =>   1
Atom   6H    basis set group =>   3
Atom   7H    basis set group =>   3
Atom   8H    basis set group =>   3
Atom   9H    basis set group =>   3
Atom  10H    basis set group =>   3
Atom  11H    basis set group =>   3
Atom  12H    basis set group =>   3
Atom  13H    basis set group =>   3
---------------------------------
AUXILIARY/J BASIS SET INFORMATION
---------------------------------
There are 3 groups of distinct atoms

 Group   1 Type C   : 12s5p4d2f1g contracted to 6s4p3d1f1g pattern {711111/2111/211/2/1}
 Group   2 Type O   : 12s5p4d2f1g contracted to 6s4p3d1f1g pattern {711111/2111/211/2/1}
 Group   3 Type H   : 5s2p1d contracted to 3s1p1d pattern {311/2/1}

Atom   0C    basis set group =>   1
Atom   1C    basis set group =>   1
Atom   2O    basis set group =>   2
Atom   3C    basis set group =>   1
Atom   4C    basis set group =>   1
Atom   5C    basis set group =>   1
Atom   6H    basis set group =>   3
Atom   7H    basis set group =>   3
Atom   8H    basis set group =>   3
Atom   9H    basis set group =>   3
Atom  10H    basis set group =>   3
Atom  11H    basis set group =>   3
Atom  12H    basis set group =>   3
Atom  13H    basis set group =>   3


           ************************************************************
           *        Program running with 8 parallel MPI-processes     *
           *              working on a common directory               *
           ************************************************************
------------------------------------------------------------------------------
                           ORCA GTO INTEGRAL CALCULATION
                           -- RI-GTO INTEGRALS CHOSEN --
------------------------------------------------------------------------------
------------------------------------------------------------------------------
                   ___                                                        
                  /   \      - P O W E R E D   B Y -                         
                 /     \                                                     
                 |  |  |   _    _      __       _____    __    __             
                 |  |  |  | |  | |    /  \     |  _  \  |  |  /  |          
                  \  \/   | |  | |   /    \    | | | |  |  | /  /          
                 / \  \   | |__| |  /  /\  \   | |_| |  |  |/  /          
                |  |  |   |  __  | /  /__\  \  |    /   |      \           
                |  |  |   | |  | | |   __   |  |    \   |  |\   \          
                \     /   | |  | | |  |  |  |  | |\  \  |  | \   \       
                 \___/    |_|  |_| |__|  |__|  |_| \__\ |__|  \__/        
                                                                              
                      - O R C A' S   B I G   F R I E N D -                    
                                      &                                       
                       - I N T E G R A L  F E E D E R -                       
                                                                              
 v1 FN, 2020, v2 2021                                                         
------------------------------------------------------------------------------


Reading SHARK input file claisen_ts_QRCR.SHARKINP.tmp ... ok
----------------------
SHARK INTEGRAL PACKAGE
----------------------

Number of atoms                             ...     14
Number of basis functions                   ...    100
Number of shells                            ...     52
Maximum angular momentum                    ...      2
Integral batch strategy                     ... SHARK/LIBINT Hybrid
RI-J (if used) integral strategy            ... SPLIT-RIJ (Revised 2003 algorithm where possible)
Printlevel                                  ...      1
Contraction scheme used                     ... SEGMENTED contraction
Coulomb Range Separation                    ... NOT USED
Exchange Range Separation                   ... NOT USED
Finite Nucleus Model                        ... NOT USED
Auxiliary Coulomb fitting basis             ... AVAILABLE
   # of basis functions in Aux-J            ...    382
   # of shells in Aux-J                     ...    130
   Maximum angular momentum in Aux-J        ...      4
Auxiliary J/K fitting basis                 ... NOT available
Auxiliary Correlation fitting basis         ... NOT available
Auxiliary 'external' fitting basis          ... NOT available
Integral threshold                          ...     2.500000e-11
Primitive cut-off                           ...     2.500000e-12
Primitive pair pre-selection threshold      ...     2.500000e-12

Calculating pre-screening integrals         ... done (  0.0 sec) Dimension = 52
Organizing shell pair data                  ... done (  0.0 sec)
Shell pair information
Total number of shell pairs                 ...      1378
Shell pairs after pre-screening             ...      1363
Total number of primitive shell pairs       ...      7653
Primitive shell pairs kept                  ...      5383
          la=0 lb=0:    580 shell pairs
          la=1 lb=0:    408 shell pairs
          la=1 lb=1:     78 shell pairs
          la=2 lb=0:    204 shell pairs
          la=2 lb=1:     72 shell pairs
          la=2 lb=2:     21 shell pairs

Calculating one electron integrals          ... done (  0.0 sec)
Calculating RI/J V-Matrix + Cholesky decomp.... done (  0.0 sec)
Calculating Nuclear repulsion               ... done (  0.0 sec) ENN=    228.874573288342 Eh

SHARK setup successfully completed in   0.1 seconds

Maximum memory used throughout the entire GTOINT-calculation: 9.7 MB


           ************************************************************
           *        Program running with 8 parallel MPI-processes     *
           *              working on a common directory               *
           ************************************************************
-------------------------------------------------------------------------------
                                 ORCA SCF
-------------------------------------------------------------------------------

------------
SCF SETTINGS
------------
Hamiltonian:
 Density Functional     Method          .... DFT(GTOs)
 Exchange Functional    Exchange        .... B88
   X-Alpha parameter    XAlpha          ....  0.666667
   Becke's b parameter  XBeta           ....  0.004200
 Correlation Functional Correlation     .... LYP
 LDA part of GGA corr.  LDAOpt          .... VWN-5
 Gradients option       PostSCFGGA      .... off
 Hybrid DFT is turned on
   Fraction HF Exchange ScalHFX         ....  0.200000
   Scaling of DF-GGA-X  ScalDFX         ....  0.720000
   Scaling of DF-GGA-C  ScalDFC         ....  0.810000
   Scaling of DF-LDA-C  ScalLDAC        ....  1.000000
   Perturbative correction              ....  0.000000
   Density functional embedding theory  .... OFF
   NL short-range parameter             ....  4.800000
 RI-approximation to the Coulomb term is turned on
   Number of AuxJ basis functions       .... 382
   RIJ-COSX (HFX calculated with COS-X)).... on


General Settings:
 Integral files         IntName         .... claisen_ts_QRCR
 Hartree-Fock type      HFTyp           .... RHF
 Total Charge           Charge          ....    0
 Multiplicity           Mult            ....    1
 Number of Electrons    NEL             ....   46
 Basis Dimension        Dim             ....  100
 Nuclear Repulsion      ENuc            ....    228.8745732883 Eh

Convergence Acceleration:
 DIIS                   CNVDIIS         .... on
   Start iteration      DIISMaxIt       ....    12
   Startup error        DIISStart       ....  0.200000
   # of expansion vecs  DIISMaxEq       ....     5
   Bias factor          DIISBfac        ....   1.050
   Max. coefficient     DIISMaxC        ....  10.000
 Trust-Rad. Augm. Hess. CNVTRAH         .... auto
   Auto Start mean grad. ratio tolernc. ....  1.125000
   Auto Start start iteration           ....    20
   Auto Start num. interpolation iter.  ....    10
   Max. Number of Micro iterations      ....    16
   Max. Number of Macro iterations      .... Maxiter - #DIIS iter
   Number of Davidson start vectors     ....     2
   Converg. threshold I  (grad. norm)   ....   1.000e-05
   Converg. threshold II (energy diff.) ....   1.000e-08
   Grad. Scal. Fac. for Micro threshold ....   0.100
   Minimum threshold for Micro iter.    ....   0.010
   NR start threshold (gradient norm)   ....   0.001
   Initial trust radius                 ....   0.400
   Minimum AH scaling param. (alpha)    ....   1.000
   Maximum AH scaling param. (alpha)    .... 1000.000
   Orbital update algorithm             .... Taylor
   White noise on init. David. guess    .... on
   Maximum white noise                  ....   0.010
   Quad. conv. algorithm                .... NR
 SOSCF                  CNVSOSCF        .... on
   Start iteration      SOSCFMaxIt      ....   150
   Startup grad/error   SOSCFStart      ....  0.003300
 Level Shifting         CNVShift        .... on
   Level shift para.    LevelShift      ....    0.2500
   Turn off err/grad.   ShiftErr        ....    0.0010
 Zerner damping         CNVZerner       .... off
 Static damping         CNVDamp         .... on
   Fraction old density DampFac         ....    0.7000
   Max. Damping (<1)    DampMax         ....    0.9800
   Min. Damping (>=0)   DampMin         ....    0.0000
   Turn off err/grad.   DampErr         ....    0.1000
 Fernandez-Rico         CNVRico         .... off

SCF Procedure:
 Maximum # iterations   MaxIter         ....   125
 SCF integral mode      SCFMode         .... Direct
   Integral package                     .... SHARK and LIBINT hybrid scheme
 Reset frequency        DirectResetFreq ....    20
 Integral Threshold     Thresh          ....  2.500e-11 Eh
 Primitive CutOff       TCut            ....  2.500e-12 Eh

Convergence Tolerance:
 Convergence Check Mode ConvCheckMode   .... Total+1el-Energy
 Convergence forced     ConvForced      .... 0
 Energy Change          TolE            ....  1.000e-08 Eh
 1-El. energy change                    ....  1.000e-05 Eh
 Orbital Gradient       TolG            ....  1.000e-05
 Orbital Rotation angle TolX            ....  1.000e-05
 DIIS Error             TolErr          ....  5.000e-07


Diagonalization of the overlap matrix:
Smallest eigenvalue                        ... 4.842e-03
Time for diagonalization                   ...    0.002 sec
Threshold for overlap eigenvalues          ... 1.000e-08
Number of eigenvalues below threshold      ... 0
Time for construction of square roots      ...    0.001 sec
Total time needed                          ...    0.004 sec

Time for model grid setup =    0.061 sec

------------------------------
INITIAL GUESS: MODEL POTENTIAL
------------------------------
Loading Hartree-Fock densities                     ... done
Calculating cut-offs                               ... done
Initializing the effective Hamiltonian             ... done
Setting up the integral package (SHARK)            ... done
Starting the Coulomb interaction                   ... done (   0.0 sec)
Reading the grid                                   ... done
Mapping shells                                     ... done
Starting the XC term evaluation                    ... done (   0.0 sec)
  promolecular density results
     # of electrons  =     45.997855577
     EX              =    -36.179671058
     EC              =     -1.510817561
     EX+EC           =    -37.690488618
Transforming the Hamiltonian                       ... done (   0.0 sec)
Diagonalizing the Hamiltonian                      ... done (   0.0 sec)
Back transforming the eigenvectors                 ... done (   0.0 sec)
Now organizing SCF variables                       ... done
                      ------------------
                      INITIAL GUESS DONE (   0.1 sec)
                      ------------------
-------------------
DFT GRID GENERATION
-------------------

General Integration Accuracy     IntAcc      ... 4.388
Radial Grid Type                 RadialGrid  ... OptM3 with GC (2021)
Angular Grid (max. ang.)         AngularGrid ... 4 (Lebedev-302)
Angular grid pruning method      GridPruning ... 4 (adaptive)
Weight generation scheme         WeightScheme... Becke
Basis function cutoff            BFCut       ... 1.0000e-11
Integration weight cutoff        WCut        ... 1.0000e-14
Angular grids for H and He will be reduced by one unit
Partially contracted basis set               ... off
Rotationally invariant grid construction     ... off

Total number of grid points                  ...    62022
Total number of batches                      ...      978
Average number of points per batch           ...       63
Average number of grid points per atom       ...     4430
Time for grid setup =    0.285 sec

--------------------
COSX GRID GENERATION
--------------------

GRIDX 1
-------
General Integration Accuracy     IntAcc      ... 3.816
Radial Grid Type                 RadialGrid  ... OptM3 with GC (2021)
Angular Grid (max. ang.)         AngularGrid ... 1 (Lebedev-50)
Angular grid pruning method      GridPruning ... 4 (adaptive)
Weight generation scheme         WeightScheme... Becke
Basis function cutoff            BFCut       ... 1.0000e-11
Integration weight cutoff        WCut        ... 1.0000e-14
Angular grids for H and He will be reduced by one unit
Partially contracted basis set               ... on
Rotationally invariant grid construction     ... off

Total number of grid points                  ...     7958
Total number of batches                      ...      132
Average number of points per batch           ...       60
Average number of grid points per atom       ...      568
UseSFitting                                  ... on

GRIDX 2
-------
General Integration Accuracy     IntAcc      ... 4.020
Radial Grid Type                 RadialGrid  ... OptM3 with GC (2021)
Angular Grid (max. ang.)         AngularGrid ... 2 (Lebedev-110)
Angular grid pruning method      GridPruning ... 4 (adaptive)
Weight generation scheme         WeightScheme... Becke
Basis function cutoff            BFCut       ... 1.0000e-11
Integration weight cutoff        WCut        ... 1.0000e-14
Angular grids for H and He will be reduced by one unit
Partially contracted basis set               ... on
Rotationally invariant grid construction     ... off

Total number of grid points                  ...    16968
Total number of batches                      ...      271
Average number of points per batch           ...       62
Average number of grid points per atom       ...     1212
UseSFitting                                  ... on

GRIDX 3
-------
General Integration Accuracy     IntAcc      ... 4.338
Radial Grid Type                 RadialGrid  ... OptM3 with GC (2021)
Angular Grid (max. ang.)         AngularGrid ... 3 (Lebedev-194)
Angular grid pruning method      GridPruning ... 4 (adaptive)
Weight generation scheme         WeightScheme... Becke
Basis function cutoff            BFCut       ... 1.0000e-11
Integration weight cutoff        WCut        ... 1.0000e-14
Angular grids for H and He will be reduced by one unit
Partially contracted basis set               ... on
Rotationally invariant grid construction     ... off

Total number of grid points                  ...    37168
Total number of batches                      ...      590
Average number of points per batch           ...       62
Average number of grid points per atom       ...     2655
UseSFitting                                  ... on

Time for X-Grid setup             =    0.195 sec

--------------
SCF ITERATIONS
--------------
ITER       Energy         Delta-E        Max-DP      RMS-DP      [F,P]     Damp
               ***  Starting incremental Fock matrix formation  ***
  0   -270.1198138799   0.000000000000 0.08127738  0.00339088  0.2311476 0.7000
  1   -270.2037259461  -0.083912066199 0.04841394  0.00233775  0.0832298 0.7000
                               ***Turning on DIIS***
  2   -270.2353418621  -0.031615915942 0.07446028  0.00358214  0.0334428 0.0000
  3   -270.2861760134  -0.050834151292 0.03552619  0.00175562  0.0440179 0.0000
  4   -270.2970884205  -0.010912407104 0.01107778  0.00053548  0.0139954 0.0000
  5   -270.2980878092  -0.000999388726 0.00434791  0.00014988  0.0043162 0.0000
                      *** Initiating the SOSCF procedure ***
                           *** Shutting down DIIS ***
                      *** Re-Reading the Fockian *** 
                      *** Removing any level shift *** 
ITER      Energy       Delta-E        Grad      Rot      Max-DP    RMS-DP
  6   -270.29813071  -0.0000428977  0.000206  0.000206  0.001700  0.000071
               *** Restarting incremental Fock matrix formation ***
  7   -270.29814646  -0.0000157561  0.000202  0.000831  0.000758  0.000037
  8   -270.29814502   0.0000014456  0.000350  0.000596  0.000425  0.000022
  9   -270.29814728  -0.0000022609  0.000051  0.000128  0.000228  0.000009
 10   -270.29814716   0.0000001190  0.000083  0.000099  0.000156  0.000006
 11   -270.29814732  -0.0000001651  0.000015  0.000050  0.000050  0.000002
 12   -270.29814732   0.0000000041  0.000024  0.000031  0.000034  0.000001
                  ***Gradient check signals convergence***
              ***Rediagonalizing the Fockian in SOSCF/NRSCF***

               *****************************************************
               *                     SUCCESS                       *
               *           SCF CONVERGED AFTER  13 CYCLES          *
               *****************************************************

Old exchange energy                            =     -7.372988173 Eh
New exchange energy                            =     -7.372989988 Eh
Exchange energy change after final integration =     -0.000001815 Eh
Total energy after final integration           =   -270.298149141 Eh
Final COS-X integration done in                =     0.893 sec

----------------
TOTAL SCF ENERGY
----------------

Total Energy       :         -270.29814914 Eh           -7355.18657 eV

Components:
Nuclear Repulsion  :          228.87457329 Eh            6227.99376 eV
Electronic Energy  :         -499.17272243 Eh          -13583.18033 eV
One Electron Energy:         -819.06950376 Eh          -22288.01430 eV
Two Electron Energy:          319.89678133 Eh            8704.83397 eV
Max COSX asymmetry :            0.00000088 Eh               0.00002 eV

Virial components:
Potential Energy   :         -538.94222188 Eh          -14665.36343 eV
Kinetic Energy     :          268.64407274 Eh            7310.17686 eV
Virial Ratio       :            2.00615713


DFT components:
N(Alpha)           :       23.000021762208 electrons
N(Beta)            :       23.000021762208 electrons
N(Total)           :       46.000043524415 electrons
E(X)               :      -29.297552018828 Eh       
E(C)               :       -1.791619021891 Eh       
E(XC)              :      -31.089171040720 Eh       
DFET-embed. en.    :        0.000000000000 Eh       

---------------
SCF CONVERGENCE
---------------

  Last Energy change         ...   -6.0920e-09  Tolerance :   1.0000e-08
  Last MAX-Density change    ...    3.9968e-15  Tolerance :   1.0000e-07
  Last RMS-Density change    ...    7.0021e-17  Tolerance :   5.0000e-09
  Last Orbital Gradient      ...    3.7904e-07  Tolerance :   1.0000e-05
  Last Orbital Rotation      ...    8.5031e-07  Tolerance :   1.0000e-05

             **** THE GBW FILE WAS UPDATED (claisen_ts_QRCR.gbw) ****
             **** DENSITY claisen_ts_QRCR.scfp WAS UPDATED ****
             **** ENERGY FILE WAS UPDATED (claisen_ts_QRCR.en.tmp) ****
             **** THE GBW FILE WAS UPDATED (claisen_ts_QRCR.gbw) ****
             **** DENSITY claisen_ts_QRCR.scfp WAS UPDATED ****
----------------
ORBITAL ENERGIES
----------------

  NO   OCC          E(Eh)            E(eV) 
   0   2.0000     -19.122760      -520.3568 
   1   2.0000     -10.236191      -278.5409 
   2   2.0000     -10.209311      -277.8095 
   3   2.0000     -10.190467      -277.2967 
   4   2.0000     -10.187092      -277.2049 
   5   2.0000     -10.172827      -276.8167 
   6   2.0000      -1.015341       -27.6288 
   7   2.0000      -0.791495       -21.5377 
   8   2.0000      -0.728816       -19.8321 
   9   2.0000      -0.664093       -18.0709 
  10   2.0000      -0.559061       -15.2128 
  11   2.0000      -0.552967       -15.0470 
  12   2.0000      -0.478960       -13.0332 
  13   2.0000      -0.458251       -12.4696 
  14   2.0000      -0.433116       -11.7857 
  15   2.0000      -0.424535       -11.5522 
  16   2.0000      -0.388637       -10.5753 
  17   2.0000      -0.381941       -10.3931 
  18   2.0000      -0.375879       -10.2282 
  19   2.0000      -0.356724        -9.7070 
  20   2.0000      -0.284035        -7.7290 
  21   2.0000      -0.250413        -6.8141 
  22   2.0000      -0.220019        -5.9870 
  23   0.0000      -0.021997        -0.5986 
  24   0.0000       0.012674         0.3449 
  25   0.0000       0.097033         2.6404 
  26   0.0000       0.111483         3.0336 
  27   0.0000       0.119477         3.2511 
  28   0.0000       0.137968         3.7543 
  29   0.0000       0.149361         4.0643 
  30   0.0000       0.168803         4.5934 
  31   0.0000       0.180276         4.9056 
  32   0.0000       0.192491         5.2379 
  33   0.0000       0.208877         5.6838 
  34   0.0000       0.303541         8.2598 
  35   0.0000       0.305137         8.3032 
  36   0.0000       0.326346         8.8803 
  37   0.0000       0.360789         9.8176 
  38   0.0000       0.493379        13.4255 
  39   0.0000       0.516359        14.0509 
  40   0.0000       0.529324        14.4036 
  41   0.0000       0.569890        15.5075 
  42   0.0000       0.575324        15.6554 
  43   0.0000       0.584968        15.9178 
  44   0.0000       0.610927        16.6242 
  45   0.0000       0.633177        17.2296 
  46   0.0000       0.649100        17.6629 
  47   0.0000       0.692194        18.8355 
  48   0.0000       0.699914        19.0456 
  49   0.0000       0.735588        20.0164 
  50   0.0000       0.775785        21.1102 
  51   0.0000       0.811569        22.0839 
  52   0.0000       0.817478        22.2447 
  53   0.0000       0.852652        23.2018 
  54   0.0000       0.860783        23.4231 
  55   0.0000       0.886678        24.1277 
  56   0.0000       0.903154        24.5761 
  57   0.0000       0.923908        25.1408 
  58   0.0000       0.938338        25.5335 
  59   0.0000       0.945739        25.7349 
  60   0.0000       1.003004        27.2931 
  61   0.0000       1.031426        28.0665 
  62   0.0000       1.108089        30.1526 
  63   0.0000       1.137456        30.9518 
  64   0.0000       1.145229        31.1633 
  65   0.0000       1.218298        33.1516 
  66   0.0000       1.291523        35.1441 
  67   0.0000       1.335680        36.3457 
  68   0.0000       1.406414        38.2705 
  69   0.0000       1.498011        40.7629 
  70   0.0000       1.525376        41.5076 
  71   0.0000       1.541072        41.9347 
  72   0.0000       1.563785        42.5528 
  73   0.0000       1.672601        45.5138 
  74   0.0000       1.711394        46.5694 
  75   0.0000       1.746013        47.5114 
  76   0.0000       1.788464        48.6666 
  77   0.0000       1.795616        48.8612 
  78   0.0000       1.894765        51.5592 
  79   0.0000       1.905210        51.8434 
  80   0.0000       1.974128        53.7188 
  81   0.0000       1.996276        54.3214 
  82   0.0000       2.032131        55.2971 
  83   0.0000       2.082237        56.6605 
  84   0.0000       2.132018        58.0152 
  85   0.0000       2.185327        59.4658 
  86   0.0000       2.215922        60.2983 
  87   0.0000       2.231472        60.7214 
  88   0.0000       2.269108        61.7456 
  89   0.0000       2.282529        62.1108 
  90   0.0000       2.312340        62.9220 
  91   0.0000       2.392597        65.1059 
  92   0.0000       2.522379        68.6374 
  93   0.0000       2.555452        69.5374 
  94   0.0000       2.628554        71.5266 
  95   0.0000       2.652539        72.1793 
  96   0.0000       2.781100        75.6776 
  97   0.0000       2.867262        78.0222 
  98   0.0000       2.898533        78.8731 
  99   0.0000       3.000430        81.6458 

                    ********************************
                    * MULLIKEN POPULATION ANALYSIS *
                    ********************************

-----------------------
MULLIKEN ATOMIC CHARGES
-----------------------
   0 C :   -0.347525
   1 C :    0.218860
   2 O :   -0.398022
   3 C :   -0.261224
   4 C :   -0.038069
   5 C :   -0.330288
   6 H :    0.143700
   7 H :    0.166442
   8 H :    0.082753
   9 H :    0.161415
  10 H :    0.151749
  11 H :    0.127356
  12 H :    0.162598
  13 H :    0.160254
Sum of atomic charges:    0.0000000

--------------------------------
MULLIKEN REDUCED ORBITAL CHARGES
--------------------------------
  0 C s       :     3.317855  s :     3.317855
      pz      :     1.039667  p :     2.999922
      px      :     0.962789
      py      :     0.997466
      dz2     :     0.009831  d :     0.029748
      dxz     :     0.002819
      dyz     :     0.005803
      dx2y2   :     0.004932
      dxy     :     0.006363
  1 C s       :     3.126839  s :     3.126839
      pz      :     0.915478  p :     2.571403
      px      :     0.809341
      py      :     0.846584
      dz2     :     0.020510  d :     0.082898
      dxz     :     0.011994
      dyz     :     0.016646
      dx2y2   :     0.017706
      dxy     :     0.016042
  2 O s       :     3.871259  s :     3.871259
      pz      :     1.671721  p :     4.499753
      px      :     1.286055
      py      :     1.541977
      dz2     :     0.004067  d :     0.027009
      dxz     :     0.003268
      dyz     :     0.005945
      dx2y2   :     0.007657
      dxy     :     0.006072
  3 C s       :     3.299151  s :     3.299151
      pz      :     1.012333  p :     2.929116
      px      :     0.906201
      py      :     1.010583
      dz2     :     0.009370  d :     0.032956
      dxz     :     0.002538
      dyz     :     0.008948
      dx2y2   :     0.004905
      dxy     :     0.007194
  4 C s       :     3.142149  s :     3.142149
      pz      :     0.951946  p :     2.859942
      px      :     0.990341
      py      :     0.917655
      dz2     :     0.010696  d :     0.035978
      dxz     :     0.003627
      dyz     :     0.007937
      dx2y2   :     0.006445
      dxy     :     0.007273
  5 C s       :     3.328309  s :     3.328309
      pz      :     1.031625  p :     2.968577
      px      :     0.905977
      py      :     1.030975
      dz2     :     0.011625  d :     0.033402
      dxz     :     0.002561
      dyz     :     0.005534
      dx2y2   :     0.009376
      dxy     :     0.004305
  6 H s       :     0.856300  s :     0.856300
  7 H s       :     0.833558  s :     0.833558
  8 H s       :     0.917247  s :     0.917247
  9 H s       :     0.838585  s :     0.838585
 10 H s       :     0.848251  s :     0.848251
 11 H s       :     0.872644  s :     0.872644
 12 H s       :     0.837402  s :     0.837402
 13 H s       :     0.839746  s :     0.839746


                     *******************************
                     * LOEWDIN POPULATION ANALYSIS *
                     *******************************

----------------------
LOEWDIN ATOMIC CHARGES
----------------------
   0 C :   -0.273793
   1 C :   -0.000011
   2 O :   -0.208905
   3 C :   -0.176691
   4 C :   -0.178239
   5 C :   -0.191942
   6 H :    0.131714
   7 H :    0.141691
   8 H :    0.081888
   9 H :    0.140952
  10 H :    0.132133
  11 H :    0.128535
  12 H :    0.137984
  13 H :    0.134682

-------------------------------
LOEWDIN REDUCED ORBITAL CHARGES
-------------------------------
  0 C s       :     3.022458  s :     3.022458
      pz      :     1.109382  p :     3.190022
      px      :     1.002457
      py      :     1.078183
      dz2     :     0.018998  d :     0.061313
      dxz     :     0.004641
      dyz     :     0.013978
      dx2y2   :     0.011387
      dxy     :     0.012310
  1 C s       :     2.922225  s :     2.922225
      pz      :     1.015214  p :     2.883955
      px      :     0.872736
      py      :     0.996005
      dz2     :     0.045892  d :     0.193831
      dxz     :     0.027598
      dyz     :     0.039933
      dx2y2   :     0.042884
      dxy     :     0.037525
  2 O s       :     3.569159  s :     3.569159
      pz      :     1.691128  p :     4.582541
      px      :     1.311588
      py      :     1.579824
      dz2     :     0.008610  d :     0.057205
      dxz     :     0.008099
      dyz     :     0.012024
      dx2y2   :     0.014236
      dxy     :     0.014236
  3 C s       :     3.001229  s :     3.001229
      pz      :     1.089116  p :     3.106266
      px      :     0.921958
      py      :     1.095192
      dz2     :     0.018925  d :     0.069195
      dxz     :     0.004185
      dyz     :     0.020716
      dx2y2   :     0.011559
      dxy     :     0.013810
  4 C s       :     2.919806  s :     2.919806
      pz      :     1.071044  p :     3.171830
      px      :     1.031064
      py      :     1.069721
      dz2     :     0.022870  d :     0.086604
      dxz     :     0.007687
      dyz     :     0.021723
      dx2y2   :     0.016840
      dxy     :     0.017485
  5 C s       :     3.002848  s :     3.002848
      pz      :     1.101094  p :     3.122503
      px      :     0.940091
      py      :     1.081318
      dz2     :     0.022238  d :     0.066591
      dxz     :     0.005512
      dyz     :     0.011817
      dx2y2   :     0.018135
      dxy     :     0.008888
  6 H s       :     0.868286  s :     0.868286
  7 H s       :     0.858309  s :     0.858309
  8 H s       :     0.918112  s :     0.918112
  9 H s       :     0.859048  s :     0.859048
 10 H s       :     0.867867  s :     0.867867
 11 H s       :     0.871465  s :     0.871465
 12 H s       :     0.862016  s :     0.862016
 13 H s       :     0.865318  s :     0.865318


                      *****************************
                      * MAYER POPULATION ANALYSIS *
                      *****************************

  NA   - Mulliken gross atomic population
  ZA   - Total nuclear charge
  QA   - Mulliken gross atomic charge
  VA   - Mayer's total valence
  BVA  - Mayer's bonded valence
  FA   - Mayer's free valence

  ATOM       NA         ZA         QA         VA         BVA        FA
  0 C      6.3475     6.0000    -0.3475     3.7793     3.7793     0.0000
  1 C      5.7811     6.0000     0.2189     3.9069     3.9069     0.0000
  2 O      8.3980     8.0000    -0.3980     2.0589     2.0589    -0.0000
  3 C      6.2612     6.0000    -0.2612     3.8912     3.8912    -0.0000
  4 C      6.0381     6.0000    -0.0381     3.8908     3.8908    -0.0000
  5 C      6.3303     6.0000    -0.3303     3.8641     3.8641     0.0000
  6 H      0.8563     1.0000     0.1437     0.9386     0.9386     0.0000
  7 H      0.8336     1.0000     0.1664     0.9389     0.9389     0.0000
  8 H      0.9172     1.0000     0.0828     0.9335     0.9335     0.0000
  9 H      0.8386     1.0000     0.1614     0.9387     0.9387     0.0000
 10 H      0.8483     1.0000     0.1517     0.9382     0.9382    -0.0000
 11 H      0.8726     1.0000     0.1274     0.9393     0.9393    -0.0000
 12 H      0.8374     1.0000     0.1626     0.9313     0.9313     0.0000
 13 H      0.8397     1.0000     0.1603     0.9335     0.9335     0.0000

  Mayer bond orders larger than 0.100000
B(  0-C ,  1-C ) :   1.1888 B(  0-C ,  3-C ) :   0.1022 B(  0-C ,  5-C ) :   0.6403 
B(  0-C ,  6-H ) :   0.9265 B(  0-C ,  7-H ) :   0.9315 B(  1-C ,  2-O ) :   1.7268 
B(  1-C ,  8-H ) :   0.9011 B(  2-O ,  3-C ) :   0.1830 B(  3-C ,  4-C ) :   1.6989 
B(  3-C ,  9-H ) :   0.9370 B(  3-C , 10-H ) :   0.9374 B(  4-C ,  5-C ) :   1.2385 
B(  4-C , 11-H ) :   0.9359 B(  5-C , 12-H ) :   0.9327 B(  5-C , 13-H ) :   0.9335 


-------
TIMINGS
-------

Total SCF time: 0 days 0 hours 0 min 6 sec 

Total time                  ....       6.642 sec
Sum of individual times     ....       6.502 sec  ( 97.9%)

Fock matrix formation       ....       5.841 sec  ( 87.9%)
  Split-RI-J                ....       0.626 sec  ( 10.7% of F)
  Chain of spheres X        ....       3.984 sec  ( 68.2% of F)
  XC integration            ....       1.152 sec  ( 19.7% of F)
    Basis function eval.    ....       0.430 sec  ( 37.3% of XC)
    Density eval.           ....       0.188 sec  ( 16.3% of XC)
    XC-Functional eval.     ....       0.117 sec  ( 10.1% of XC)
    XC-Potential eval.      ....       0.201 sec  ( 17.4% of XC)
Diagonalization             ....       0.025 sec  (  0.4%)
Density matrix formation    ....       0.002 sec  (  0.0%)
Population analysis         ....       0.004 sec  (  0.1%)
Initial guess               ....       0.053 sec  (  0.8%)
Orbital Transformation      ....       0.000 sec  (  0.0%)
Orbital Orthonormalization  ....       0.000 sec  (  0.0%)
DIIS solution               ....       0.018 sec  (  0.3%)
SOSCF solution              ....       0.018 sec  (  0.3%)
Grid generation             ....       0.541 sec  (  8.1%)

Maximum memory used throughout the entire SCF-calculation: 48.8 MB

-------------------------   --------------------
FINAL SINGLE POINT ENERGY      -270.298149140941
-------------------------   --------------------



           ************************************************************
           *        Program running with 8 parallel MPI-processes     *
           *              working on a common directory               *
           ************************************************************
------------------------------------------------------------------------------
                         ORCA SCF GRADIENT CALCULATION
------------------------------------------------------------------------------

 ... reading COSX grid (gridx3)
Gradient of the Kohn-Sham DFT energy:
Kohn-Sham wavefunction type      ... RKS
Hartree-Fock exchange scaling    ...    0.200
Number of operators              ...    1
Number of atoms                  ...   14
Basis set dimensions             ...  100
Integral neglect threshold       ... 2.5e-11
Integral primitive cutoff        ... 2.5e-12
SHARK Integral package           ... ON

Nuc. rep. gradient       (SHARK) ... done (  0.0 sec)
HCore & Overlap gradient (SHARK) ... done (  0.0 sec)
RI-J gradient            (SHARK) ... done (  0.1 sec)
COSX-gradient                    ... done (  0.7 sec)
Exchange-correlation gradient    ... done

------------------
CARTESIAN GRADIENT
------------------

   1   C   :   -0.026128322   -0.008598004   -0.000356686
   2   C   :    0.005721319   -0.006403135   -0.005902159
   3   O   :    0.013630891    0.011964074    0.006601340
   4   C   :   -0.013556800    0.000442978   -0.009652804
   5   C   :    0.000861779   -0.001015661    0.003225105
   6   C   :    0.025411819    0.005690488    0.001720647
   7   H   :   -0.000530661   -0.000007414    0.000009072
   8   H   :    0.000952496   -0.000133439   -0.005618563
   9   H   :    0.000656892    0.000963020    0.000752050
  10   H   :   -0.003142436   -0.001249273   -0.000904294
  11   H   :   -0.002462894   -0.000995539    0.005971741
  12   H   :   -0.000699957   -0.000209601   -0.000058051
  13   H   :   -0.000905358    0.000002628   -0.000437349
  14   H   :    0.000315139   -0.000352354    0.004694694

Difference to translation invariance:
           :    0.0001239046    0.0000987694    0.0000447436

Difference to rotation invariance:
           :    0.0005293606    0.0002162194    0.0001267424

Norm of the cartesian gradient     ...    0.0481845466
RMS gradient                       ...    0.0074350370
MAX gradient                       ...    0.0261283225

-------
TIMINGS
-------

Total SCF gradient time            ...        1.400 sec

One electron gradient       ....       0.017 sec  (  1.2%)
RI-J Coulomb gradient       ....       0.124 sec  (  8.9%)
COSX gradient               ....       0.740 sec  ( 52.8%)
XC gradient                 ....       0.262 sec  ( 18.7%)

Maximum memory used throughout the entire SCFGRAD-calculation: 37.3 MB
------------------------------------------------------------------------------
                         ORCA GEOMETRY RELAXATION STEP
------------------------------------------------------------------------------

Reading the OPT-File                    .... done
Getting information on internals        .... done
Copying old internal coords+grads       .... done
Making the new internal coordinates     .... (new redundants).... done
Validating the new internal coordinates .... (new redundants).... done
Calculating the B-matrix                .... done
Calculating the G,G- and P matrices     .... done
Transforming gradient to internals      .... done
Projecting the internal gradient        .... done
Number of atoms                         ....  14
Number of internal coordinates          .... 126
Current Energy                          ....  -270.298149141 Eh
Current gradient norm                   ....     0.048184547 Eh/bohr
Maximum allowed component of the step   ....  0.300
Current trust radius                    ....  0.300
Evaluating the initial hessian          ....  (Almloef) done
Projecting the Hessian                  .... done
Forming the augmented Hessian           .... done
Diagonalizing the augmented Hessian     .... done
Last element of RFO vector              ....  0.892101282
Lowest eigenvalues of augmented Hessian:
 -0.008311744  0.010656033  0.013397833  0.024123359  0.035889951
Length of the computed step             ....  0.506484512
Warning: the length of the step is outside the trust region - taking restricted step instead
The input lambda is                     ....    -0.008312
   iter:   1  x=   -0.017249  g=   18.633867 f(x)=     0.166527
   iter:   2  x=   -0.024790  g=    7.746135 f(x)=     0.058416
   iter:   3  x=   -0.028005  g=    4.412731 f(x)=     0.014186
   iter:   4  x=   -0.028393  g=    3.585143 f(x)=     0.001394
   iter:   5  x=   -0.028398  g=    3.499953 f(x)=     0.000017
   iter:   6  x=   -0.028398  g=    3.498928 f(x)=     0.000000
   iter:   7  x=   -0.028398  g=    3.498928 f(x)=     0.000000
The output lambda is                    ....    -0.028398 (7 iterations)
The final length of the internal step   ....  0.300000000
Converting the step to cartesian space:
 Initial RMS(Int)=    0.0267261242
Transforming coordinates:
 Iter   0:  RMS(Cart)=    0.0256683266 RMS(Int)=    0.0267265004
 Iter   1:  RMS(Cart)=    0.0002942638 RMS(Int)=    0.0001415552
 Iter   2:  RMS(Cart)=    0.0000026296 RMS(Int)=    0.0000025239
 Iter   3:  RMS(Cart)=    0.0000000551 RMS(Int)=    0.0000000383
done
Storing new coordinates                 .... done

                                .--------------------.
          ----------------------|Geometry convergence|-------------------------
          Item                value                   Tolerance       Converged
          ---------------------------------------------------------------------
          RMS gradient        0.0019851625            0.0001000000      NO
          MAX gradient        0.0086757851            0.0003000000      NO
          RMS step            0.0267261242            0.0020000000      NO
          MAX step            0.1131064761            0.0040000000      NO
          ........................................................
          Max(Bonds)      0.0599      Max(Angles)    1.54
          Max(Dihed)        1.85      Max(Improp)    0.00
          ---------------------------------------------------------------------

The optimization has not yet converged - more geometry cycles are needed


    ---------------------------------------------------------------------------
                         Redundant Internal Coordinates
                            (Angstroem and degrees)

        Definition                    Value    dE/dq     Step     New-Value
    ----------------------------------------------------------------------------
     1. B(C   1,C   0)                1.4330 -0.002288  0.0031    1.4361   
     2. B(O   2,C   1)                1.2359 -0.008676  0.0047    1.2406   
     3. B(C   3,O   2)                2.1569 -0.006947  0.0563    2.2132   
     4. B(C   4,C   3)                1.3567 -0.000927  0.0006    1.3573   
     5. B(C   4,O   2)                2.6743 -0.003782  0.0268    2.7011   
     6. B(C   5,C   0)                2.0802  0.006671 -0.0537    2.0265   
     7. B(C   5,C   4)                1.4328 -0.002948  0.0025    1.4353   
     8. B(C   5,C   1)                2.6467  0.001346 -0.0180    2.6287   
     9. B(H   6,C   0)                1.0895 -0.002234  0.0020    1.0915   
    10. B(H   6,C   5)                2.6050  0.003984 -0.0500    2.5549   
    11. B(H   7,C   0)                1.0954  0.002779 -0.0052    1.0901   
    12. B(H   7,C   5)                2.4892  0.004359 -0.0404    2.4487   
    13. B(H   8,C   1)                1.1128  0.000354 -0.0005    1.1123   
    14. B(H   9,O   2)                2.4877 -0.005221  0.0599    2.5476   
    15. B(H   9,C   3)                1.0849  0.002802 -0.0025    1.0824   
    16. B(H  10,O   2)                2.3535 -0.002767  0.0426    2.3961   
    17. B(H  10,C   3)                1.0946  0.007597 -0.0104    1.0842   
    18. B(H  11,C   4)                1.0891 -0.000173  0.0002    1.0893   
    19. B(H  12,C   0)                2.4865  0.003308 -0.0420    2.4444   
    20. B(H  12,H   7)                2.6366  0.001262 -0.0314    2.6052   
    21. B(H  12,C   5)                1.0881 -0.002119  0.0024    1.0905   
    22. B(H  13,C   0)                2.5264  0.004841 -0.0465    2.4799   
    23. B(H  13,C   5)                1.0958  0.001795 -0.0043    1.0916   
    24. A(C   5,C   0,H   7)           98.44 -0.001876    0.69     99.13   
    25. A(H   6,C   0,H   7)          115.58  0.000512   -0.32    115.26   
    26. A(C   5,C   0,H   6)          106.29 -0.000437   -0.15    106.15   
    27. A(C   1,C   0,H   6)          118.58  0.001045   -0.49    118.09   
    28. A(C   1,C   0,H   7)          116.51  0.000588   -0.26    116.25   
    29. A(C   1,C   0,C   5)           96.01 -0.001346    1.30     97.31   
    30. A(O   2,C   1,C   5)           97.99 -0.000982    1.06     99.05   
    31. A(C   0,C   1,H   8)          115.80 -0.000670    0.17    115.96   
    32. A(C   0,C   1,O   2)          122.61  0.000629   -0.21    122.40   
    33. A(C   5,C   1,H   8)          108.53 -0.000497   -0.00    108.53   
    34. A(C   0,C   1,C   5)           51.41  0.001967   -1.54     49.88   
    35. A(O   2,C   1,H   8)          120.17  0.000105   -0.02    120.14   
    36. A(C   1,O   2,C   3)          104.67  0.002004   -1.12    103.55   
    37. A(C   1,O   2,C   4)           86.31  0.002049   -1.03     85.28   
    38. A(C   3,O   2,C   4)           30.27  0.000137   -0.24     30.03   
    39. A(O   2,C   3,H   9)           94.40 -0.000210    0.64     95.04   
    40. A(O   2,C   3,C   4)           96.46  0.001349   -1.17     95.29   
    41. A(H   9,C   3,H  10)          115.68  0.000233   -0.02    115.66   
    42. A(C   4,C   3,H  10)          121.42 -0.000077    0.10    121.52   
    43. A(C   4,C   3,H   9)          122.35 -0.000355    0.03    122.38   
    44. A(O   2,C   3,H  10)           86.22  0.000165   -0.18     86.04   
    45. A(C   5,C   4,H  11)          117.41  0.000596   -0.04    117.36   
    46. A(C   3,C   4,H  11)          118.59  0.000094    0.03    118.61   
    47. A(O   2,C   4,H  11)          108.58  0.000065    0.16    108.73   
    48. A(O   2,C   4,C   5)           91.77 -0.000191   -0.89     90.88   
    49. A(O   2,C   4,C   3)           53.27 -0.001486    1.41     54.68   
    50. A(C   3,C   4,C   5)          120.76 -0.001141    0.22    120.98   
    51. A(H  12,C   5,H  13)          113.22  0.000534   -0.32    112.90   
    52. A(C   0,C   5,C   1)           32.58 -0.000621    0.24     32.82   
    53. A(C   4,C   5,H  13)          117.39  0.000377   -0.11    117.28   
    54. A(C   1,C   5,H  13)           86.64 -0.000797    0.03     86.68   
    55. A(C   1,C   5,H  12)          131.09 -0.001515    0.57    131.66   
    56. A(C   4,C   5,H  12)          119.09  0.001116   -0.50    118.59   
    57. A(C   1,C   5,C   4)           83.92 -0.000875    0.86     84.78   
    58. A(C   0,C   5,H  13)          100.80 -0.001343    0.30    101.10   
    59. A(C   0,C   5,H  12)           98.53 -0.000891    0.32     98.85   
    60. A(C   0,C   5,C   4)          102.97 -0.001045    0.85    103.82   
    61. D(C   5,C   1,C   0,H   6)   -112.24  0.001018   -0.48   -112.72   
    62. D(H   8,C   1,C   0,H   6)    -18.46  0.001711   -1.27    -19.74   
    63. D(O   2,C   1,C   0,C   5)    -72.58  0.000389   -0.48    -73.06   
    64. D(O   2,C   1,C   0,H   6)    175.17  0.001407   -0.96    174.22   
    65. D(H   8,C   1,C   0,C   5)     93.78  0.000693   -0.79     92.99   
    66. D(O   2,C   1,C   0,H   7)     29.97 -0.002338    0.94     30.91   
    67. D(C   5,C   1,C   0,H   7)    102.56 -0.002727    1.42    103.97   
    68. D(H   8,C   1,C   0,H   7)   -163.66 -0.002033    0.63   -163.04   
    69. D(C   4,O   2,C   1,C   0)     48.93  0.001111   -0.81     48.11   
    70. D(C   3,O   2,C   1,C   5)     24.36 -0.000094   -0.04     24.32   
    71. D(C   4,O   2,C   1,H   8)   -116.86  0.000891   -0.51   -117.37   
    72. D(C   3,O   2,C   1,H   8)    -92.57  0.001185   -0.79    -93.36   
    73. D(C   3,O   2,C   1,C   0)     73.22  0.001405   -1.10     72.12   
    74. D(C   4,O   2,C   1,C   5)      0.06 -0.000388    0.25      0.31   
    75. D(H  10,C   3,O   2,C   4)    121.22 -0.000073    0.10    121.32   
    76. D(C   4,C   3,O   2,C   1)    -54.53 -0.000771    0.40    -54.13   
    77. D(H  10,C   3,O   2,C   1)     66.69 -0.000844    0.50     67.19   
    78. D(H   9,C   3,O   2,C   4)   -123.28  0.000177    0.04   -123.24   
    79. D(H   9,C   3,O   2,C   1)   -177.82 -0.000594    0.45   -177.37   
    80. D(H  11,C   4,C   3,H   9)      6.76  0.001300   -0.91      5.85   
    81. D(H  11,C   4,O   2,C   1)   -119.87  0.000127   -0.08   -119.95   
    82. D(H  11,C   4,O   2,C   3)    112.27 -0.000011    0.01    112.29   
    83. D(C   5,C   4,C   3,H   9)    165.86  0.000035   -0.27    165.59   
    84. D(C   5,C   4,O   2,C   3)   -127.97  0.000569   -0.36   -128.33   
    85. D(C   5,C   4,C   3,H  10)    -23.04 -0.001534    0.63    -22.40   
    86. D(C   5,C   4,O   2,C   1)     -0.12  0.000707   -0.45     -0.57   
    87. D(C   5,C   4,C   3,O   2)     66.47 -0.000525   -0.28     66.20   
    88. D(C   3,C   4,O   2,C   1)    127.86  0.000138   -0.09    127.76   
    89. D(H  11,C   4,C   3,O   2)    -92.64  0.000740   -0.91    -93.55   
    90. D(O   2,C   4,C   3,H   9)     99.39  0.000560    0.00     99.39   
    91. D(H  11,C   4,C   3,H  10)    177.86 -0.000269   -0.00    177.85   
    92. D(O   2,C   4,C   3,H  10)    -89.51 -0.001009    0.91    -88.60   
    93. D(C   0,C   5,C   4,H  11)     85.48  0.000454   -0.46     85.02   
    94. D(C   0,C   5,C   4,C   3)    -73.87  0.001800   -1.10    -74.97   
    95. D(H  13,C   5,C   4,O   2)     83.08 -0.001775    0.73     83.81   
    96. D(H  13,C   5,C   4,C   3)     35.76 -0.000318   -0.25     35.51   
    97. D(H  12,C   5,C   4,O   2)   -134.14  0.001648   -0.86   -135.00   
    98. D(H  12,C   5,C   4,H  11)    -22.11  0.001759   -1.20    -23.32   
    99. D(C   0,C   5,C   1,H   8)   -108.65  0.000331   -0.08   -108.73   
   100. D(C   0,C   5,C   1,O   2)    125.74  0.000920   -0.60    125.14   
   101. D(H  13,C   5,C   1,H   8)      7.48 -0.000474    0.27      7.75   
   102. D(H  13,C   5,C   1,O   2)   -118.13  0.000115   -0.24   -118.37   
   103. D(H  13,C   5,C   1,C   0)    116.13 -0.000805    0.36    116.48   
   104. D(H  12,C   5,C   1,H   8)   -110.74  0.000157    0.46   -110.29   
   105. D(H  12,C   5,C   1,O   2)    123.65  0.000746   -0.06    123.59   
   106. D(H  12,C   5,C   1,C   0)     -2.10 -0.000174    0.54     -1.56   
   107. D(C   4,C   5,C   1,H   8)    125.49  0.000137    0.05    125.54   
   108. D(C   4,C   5,C   1,O   2)     -0.12  0.000726   -0.47     -0.59   
   109. D(C   4,C   5,C   1,C   0)   -125.86 -0.000195    0.13   -125.73   
   110. D(C   1,C   5,C   0,H   7)   -117.99  0.000067   -0.16   -118.15   
   111. D(C   1,C   5,C   0,H   6)    122.13  0.000447   -0.04    122.09   
   112. D(H  13,C   5,C   0,H   7)    176.17 -0.000138    0.10    176.27   
   113. D(H  13,C   5,C   0,H   6)     56.29  0.000242    0.21     56.50   
   114. D(H  12,C   5,C   4,C   3)    178.54  0.003105   -1.85    176.69   
   115. D(H  13,C   5,C   0,C   1)    -65.85 -0.000205    0.26    -65.59   
   116. D(H  12,C   5,C   0,H   7)     60.42 -0.000099    0.26     60.68   
   117. D(H  12,C   5,C   0,H   6)    -59.47  0.000281    0.38    -59.09   
   118. D(H  13,C   5,C   4,H  11)   -164.90 -0.001664    0.39   -164.51   
   119. D(H  12,C   5,C   0,C   1)    178.40 -0.000166    0.42    178.83   
   120. D(C   4,C   5,C   0,H   7)    -62.20 -0.000631    0.41    -61.79   
   121. D(C   4,C   5,C   0,H   6)    177.92 -0.000251    0.52    178.44   
   122. D(C   0,C   5,C   4,O   2)    -26.55  0.000343   -0.12    -26.67   
   123. D(C   1,C   5,C   4,O   2)      0.05 -0.000335    0.21      0.27   
   124. D(C   4,C   5,C   0,C   1)     55.79 -0.000698    0.56     56.35   
   125. D(C   1,C   5,C   4,H  11)    112.08 -0.000224   -0.13    111.95   
   126. D(C   1,C   5,C   4,C   3)    -47.27  0.001122   -0.77    -48.03   
    ----------------------------------------------------------------------------

         *************************************************************
         *                GEOMETRY OPTIMIZATION CYCLE   2            *
         *************************************************************
---------------------------------
CARTESIAN COORDINATES (ANGSTROEM)
---------------------------------
  C     -1.339369    0.844921   -0.263970
  C     -1.307490   -0.490930    0.262444
  O     -0.648140   -1.398738   -0.266976
  C      1.446202   -0.861488    0.205503
  C      1.371763    0.394008   -0.304902
  C      0.530253    1.388114    0.298127
  H     -2.016786    1.563969    0.200033
  H     -1.229529    0.939666   -1.344427
  H     -1.704006   -0.617268    1.293969
  H      1.882068   -1.685773   -0.344164
  H      1.187691   -1.069973    1.237529
  H      1.676479    0.555842   -1.338102
  H      0.541500    2.398830   -0.110884
  H      0.436127    1.370962    1.385500

----------------------------
CARTESIAN COORDINATES (A.U.)
----------------------------
  NO LB      ZA    FRAG     MASS         X           Y           Z
   0 C     6.0000    0    12.011   -2.531040    1.596669   -0.498832
   1 C     6.0000    0    12.011   -2.470798   -0.927722    0.495947
   2 O     8.0000    0    15.999   -1.224806   -2.643232   -0.504511
   3 C     6.0000    0    12.011    2.732925   -1.627976    0.388344
   4 C     6.0000    0    12.011    2.592256    0.744567   -0.576181
   5 C     6.0000    0    12.011    1.002033    2.623156    0.563378
   6 H     1.0000    0     1.008   -3.811173    2.955474    0.378007
   7 H     1.0000    0     1.008   -2.323472    1.775712   -2.540598
   8 H     1.0000    0     1.008   -3.220105   -1.166467    2.445247
   9 H     1.0000    0     1.008    3.556593   -3.185648   -0.650375
  10 H     1.0000    0     1.008    2.244411   -2.021956    2.338592
  11 H     1.0000    0     1.008    3.168087    1.050389   -2.528647
  12 H     1.0000    0     1.008    1.023287    4.533133   -0.209540
  13 H     1.0000    0     1.008    0.824161    2.590743    2.618216

--------------------------------
INTERNAL COORDINATES (ANGSTROEM)
--------------------------------
 C      0   0   0     0.000000000000     0.00000000     0.00000000
 C      1   0   0     1.436183679938     0.00000000     0.00000000
 O      2   1   0     1.240622640505   122.41165544     0.00000000
 C      3   2   1     2.213174264595   103.54444666    72.11409429
 C      4   3   2     1.357322222884    95.29958437   305.86515376
 C      5   4   3     1.435280415665   120.98572977    66.19519892
 H      1   2   3     1.091431990558   118.08214700   174.22134062
 H      1   2   3     1.090150092214   116.22387028    30.91373712
 H      2   1   3     1.112308810520   115.95407197   166.04448879
 H      4   3   2     1.082385139468    95.03642672   182.62883865
 H      4   3   2     1.084146008771    86.03748042    67.18646673
 H      5   4   3     1.089286820906   118.60429005   266.45377022
 H      6   5   4     1.090395895385   118.57855402   176.70751451
 H      6   5   4     1.091574547181   117.27121932    35.50903865

---------------------------
INTERNAL COORDINATES (A.U.)
---------------------------
 C      0   0   0     0.000000000000     0.00000000     0.00000000
 C      1   0   0     2.713993833090     0.00000000     0.00000000
 O      2   1   0     2.344437026097   122.41165544     0.00000000
 C      3   2   1     4.182293246727   103.54444666    72.11409429
 C      4   3   2     2.564967276736    95.29958437   305.86515376
 C      5   4   3     2.712286910988   120.98572977    66.19519892
 H      1   2   3     2.062507555955   118.08214700   174.22134062
 H      1   2   3     2.060085119153   116.22387028    30.91373712
 H      2   1   3     2.101959028231   115.95407197   166.04448879
 H      4   3   2     2.045411485021    95.03642672   182.62883865
[...]
     10      -0.027326   0.027632  -0.010052  -0.017795   0.000793   0.016451
     11      -0.030003  -0.104223  -0.011764   0.027262  -0.001444  -0.029807
     12      -0.069658  -0.001917  -0.022452  -0.000017   0.003076  -0.070246
     13       0.011990   0.005103   0.013720   0.032009  -0.006529   0.074724
     14       0.079054   0.077891   0.021176  -0.038494   0.004227  -0.018831
     15       0.050856  -0.025225  -0.041220  -0.144551   0.000009   0.045867
     16       0.008347   0.009623  -0.033466   0.055415  -0.016810  -0.013522
     17      -0.044352   0.031929   0.027281   0.024545  -0.006659   0.012024
     18       0.266700   0.130013  -0.255844   0.351970  -0.056417  -0.010612
     19       0.250873   0.071318  -0.236696   0.193587  -0.013342  -0.089013
     20      -0.012235   0.045526   0.019635   0.071541  -0.015652   0.195812
     21       0.215682  -0.020282  -0.549537  -0.113119  -0.131512   0.166966
     22       0.207590  -0.047889  -0.308531  -0.058009  -0.153136  -0.178464
     23      -0.036398  -0.001285  -0.048859  -0.006304   0.015651  -0.025580
     24      -0.074682  -0.010838  -0.085692   0.035315   0.493116   0.045668
     25       0.110815   0.021279  -0.230439   0.118126   0.789090   0.044430
     26       0.071781  -0.003043  -0.052140   0.006824   0.216995   0.014445
     27       0.121486  -0.005506   0.033406   0.033706  -0.013320   0.192935
     28      -0.075239  -0.005631  -0.053493  -0.096091   0.015618  -0.235558
     29       0.160470  -0.017862   0.077399   0.139026  -0.035535   0.561448
     30      -0.102263  -0.268317   0.008707   0.184127  -0.030974   0.392433
     31       0.075521   0.284628   0.009494  -0.151937   0.032920  -0.400750
     32      -0.021534  -0.103630  -0.006069   0.035600  -0.002376  -0.021576
     33      -0.027554   0.593200   0.068331  -0.074079   0.004921   0.169476
     34       0.089590  -0.617695  -0.039047   0.076777   0.003508  -0.184800
     35       0.083152   0.109282   0.028776  -0.049674   0.006263  -0.010199
     36      -0.508273   0.185937  -0.319300   0.583167  -0.076265  -0.028135
     37       0.191662  -0.059237   0.027851  -0.143467   0.025371  -0.037228
     38       0.089967  -0.001427  -0.050849   0.025136   0.078919  -0.175537
     39       0.511507   0.026204   0.506700   0.548227   0.012980  -0.216700
     40      -0.269125   0.048787  -0.055411  -0.082006   0.098365  -0.086127
     41      -0.075234   0.038809   0.014324   0.002504   0.010302   0.000821
                 30         31         32         33         34         35    
      0       0.038256  -0.002782  -0.004882  -0.028382   0.003127   0.041770
      1      -0.053466  -0.016944   0.005728  -0.042136  -0.000349  -0.050934
      2       0.042256   0.005327  -0.001063  -0.028125  -0.001813  -0.006744
      3       0.006843   0.000512   0.002722   0.368977   0.009942   0.000033
      4      -0.006773   0.005271   0.000573   0.461570  -0.025505  -0.000206
      5      -0.000309  -0.008477   0.001697   0.391233   0.077935  -0.002173
      6       0.000574   0.005123  -0.001211  -0.246799   0.001162   0.000263
      7       0.001593   0.003869  -0.000734  -0.291742   0.001601   0.000110
      8      -0.000892   0.009020  -0.000867  -0.284130   0.000838   0.000269
      9      -0.006962  -0.007636  -0.220683   0.002293  -0.000012   0.000077
     10       0.008078   0.008417   0.237421  -0.002845   0.000172   0.000042
     11      -0.013289  -0.011624  -0.178609   0.000525  -0.000274  -0.000196
     12      -0.016427  -0.023327   0.262856  -0.002004   0.000052  -0.000229
     13       0.019385   0.013550  -0.281099   0.003556  -0.000112   0.000435
     14      -0.000470  -0.002236   0.152896   0.000135  -0.000244  -0.000420
     15       0.014787   0.005506  -0.045644  -0.006892   0.000088   0.008044
     16       0.001279  -0.068097   0.046638  -0.010565  -0.000632   0.026253
     17       0.015357  -0.054929  -0.010067  -0.003306  -0.001770   0.011649
     18      -0.116494  -0.029571   0.006441  -0.056602  -0.024957  -0.500294
     19       0.196477   0.016572   0.001341  -0.066444   0.020807   0.610941
     20      -0.611023  -0.100567   0.025342   0.009207   0.016416   0.339694
     21      -0.438209  -0.034417   0.023532   0.122332   0.003102  -0.002759
     22       0.501260   0.100428  -0.009847   0.205290  -0.001022   0.007621
     23       0.096466   0.013491  -0.007146   0.007662   0.014375  -0.253535
     24      -0.010529  -0.049247  -0.004776  -0.142348  -0.145683   0.002472
     25       0.052934  -0.068477  -0.004121  -0.387279   0.270358  -0.007607
     26       0.017742  -0.026532   0.001186   0.176221  -0.946909   0.018100
     27       0.049934   0.045003  -0.045342  -0.000345  -0.000023   0.001860
     28      -0.063822  -0.069440   0.015038  -0.003396   0.000419  -0.001774
     29       0.154761   0.157388   0.453993  -0.000256  -0.000444  -0.001980
     30       0.102850   0.118848   0.329226  -0.001877  -0.000798  -0.000748
     31      -0.102790  -0.100595  -0.314142   0.004695  -0.000562   0.000550
     32      -0.010886  -0.011219  -0.232157   0.001711   0.003153   0.004364
     33       0.063204   0.055997  -0.269576   0.002150   0.000283  -0.001122
     34      -0.068169  -0.020273   0.259313   0.000592  -0.000253  -0.000246
     35       0.005413   0.003610   0.175167   0.001995   0.000982   0.007744
     36      -0.005778   0.028911  -0.092833   0.005275  -0.003259  -0.094751
     37      -0.038325   0.098417   0.061902  -0.012420   0.004409  -0.348749
     38      -0.157867   0.653293   0.039174   0.027612  -0.004271   0.084902
     39      -0.088972   0.113566   0.139655   0.008880  -0.004361  -0.000985
     40      -0.127543   0.670728  -0.108185   0.009086  -0.004689   0.028371
     41       0.000673   0.024580  -0.023008  -0.009582   0.023599  -0.228779
                 36         37         38         39         40         41    
      0       0.019618   0.003200   0.009423  -0.000066   0.000015   0.000018
      1      -0.024894  -0.003976  -0.009052   0.000129  -0.000028   0.000039
      2       0.000556  -0.015341  -0.086221   0.004966   0.000836   0.000122
      3       0.000391   0.000095  -0.000895   0.000130   0.000060   0.000077
      4       0.001480  -0.000822  -0.000803   0.000053   0.000170   0.000000
      5      -0.002456   0.000500  -0.003526   0.000510  -0.000184   0.000284
      6       0.000001   0.000098   0.000380  -0.000046  -0.000029  -0.000027
      7      -0.000193   0.000208   0.000345  -0.000085  -0.000057  -0.000040
      8       0.000078   0.000106   0.000723  -0.000123  -0.000015  -0.000065
      9       0.000171  -0.000236   0.000264   0.011803  -0.032026  -0.045315
     10      -0.000326   0.000276  -0.000218  -0.012163   0.036235   0.039177
     11       0.000601  -0.001040   0.000239   0.003409  -0.048116   0.077794
     12      -0.000292   0.000940  -0.000269  -0.003899   0.004099  -0.000032
     13       0.000161  -0.000780  -0.000275  -0.002450  -0.006433  -0.000834
     14       0.000233  -0.007339   0.006451   0.079369   0.027758   0.011179
     15      -0.015924  -0.011685   0.001845  -0.000169   0.000152   0.000254
     16      -0.051970  -0.049686   0.005972  -0.005121  -0.002064  -0.000804
     17      -0.030891   0.075086  -0.014181   0.008461   0.000809   0.000807
     18      -0.237044  -0.045892  -0.160686   0.003480  -0.001945  -0.000055
     19       0.285174   0.059415   0.196652  -0.005732   0.000882  -0.000127
     20       0.158400   0.028518   0.093778  -0.003484   0.000224  -0.000187
     21      -0.003843   0.005511   0.044841  -0.005722  -0.000822  -0.000929
     22       0.008455  -0.014162  -0.072972   0.004406   0.000634   0.000241
     23      -0.161353   0.158938   0.935612  -0.056788  -0.009369  -0.002422
     24       0.003180  -0.000397   0.002976  -0.000467   0.000325  -0.000317
     25      -0.010050   0.005581  -0.008995   0.001880  -0.000461   0.000700
     26       0.025224  -0.010209   0.024513  -0.004203   0.001968  -0.002157
     27      -0.005026   0.003331  -0.006296  -0.167225   0.346540   0.516013
     28       0.003499  -0.002836   0.006234   0.157983  -0.327287  -0.489253
     29       0.005418  -0.004485   0.005178   0.125169  -0.261606  -0.363704
     30       0.001879  -0.002763   0.001004   0.008568  -0.031020   0.012821
     31      -0.000515   0.001326  -0.000745   0.005976  -0.033338   0.035015
     32      -0.013611   0.010518  -0.007201  -0.176868   0.785135  -0.582049
     33       0.001583  -0.004106   0.001818   0.058552   0.015663   0.006222
     34      -0.000453  -0.002789   0.002949   0.014670   0.006230   0.002338
     35      -0.001373   0.095084  -0.074913  -0.935763  -0.281955  -0.109078
     36       0.186905   0.148227  -0.020245   0.010809   0.003100   0.000716
     37       0.677626   0.537210  -0.062774   0.047805   0.020452   0.005155
     38      -0.163174  -0.108836   0.012453  -0.008546  -0.003246  -0.001627
     39       0.005133  -0.013894   0.007007  -0.000188  -0.001315   0.002143
     40      -0.060456   0.068155  -0.013680   0.007345   0.001581  -0.001215
     41       0.530024  -0.789231   0.157769  -0.089979  -0.005742  -0.012357


-----------
IR SPECTRUM
-----------

 Mode   freq       eps      Int      T**2         TX        TY        TZ
       cm**-1   L/(mol*cm) km/mol    a.u.
----------------------------------------------------------------------------
  6:     59.56   0.000783    3.96  0.004105  ( 0.054826 -0.031163 -0.011306)
  7:     92.39   0.000416    2.10  0.001405  (-0.027656  0.012068  0.022238)
  8:    113.90   0.000419    2.12  0.001147  (-0.024441  0.021884 -0.008390)
  9:    264.87   0.000348    1.76  0.000410  ( 0.006817  0.005819 -0.018150)
 10:    351.70   0.000669    3.38  0.000594  ( 0.014612  0.014483 -0.013066)
 11:    427.32   0.000359    1.81  0.000262  (-0.002942  0.015392 -0.004084)
 12:    503.69   0.000825    4.17  0.000511  (-0.006555 -0.017338  0.012951)
 13:    659.03   0.002669   13.49  0.001264  ( 0.023301  0.025527 -0.008312)
 14:    749.58   0.000420    2.12  0.000175  ( 0.001884  0.013057 -0.000789)
 15:    871.87   0.001689    8.53  0.000604  (-0.002633  0.017896 -0.016649)
 16:    901.42   0.000376    1.90  0.000130  (-0.008711 -0.006294  0.003808)
 17:    945.93   0.007211   36.44  0.002379  ( 0.034350  0.034478  0.003208)
 18:   1006.17   0.000886    4.48  0.000275  ( 0.012247  0.001651 -0.011051)
 19:   1031.17   0.001841    9.30  0.000557  (-0.015931 -0.017069  0.003450)
 20:   1035.96   0.000560    2.83  0.000169  (-0.012361 -0.003998 -0.000133)
 21:   1066.11   0.003028   15.30  0.000886  ( 0.020169  0.021870 -0.001147)
 22:   1168.56   0.001497    7.56  0.000400  ( 0.008814  0.015649 -0.008781)
 23:   1239.74   0.001205    6.09  0.000303  ( 0.014013  0.010336  0.000346)
 24:   1246.58   0.000082    0.42  0.000021  (-0.004059 -0.001249  0.001604)
 25:   1334.70   0.000327    1.65  0.000076  (-0.004976  0.004894 -0.005265)
 26:   1359.04   0.000037    0.19  0.000008  ( 0.000441 -0.002442  0.001526)
 27:   1371.45   0.000665    3.36  0.000151  (-0.009011  0.008015  0.002438)
 28:   1438.65   0.000827    4.18  0.000179  (-0.000100 -0.008633  0.010236)
 29:   1475.63   0.000850    4.30  0.000180  ( 0.004230 -0.009665  0.008273)
 30:   1486.85   0.001035    5.23  0.000217  (-0.007259  0.008912 -0.009228)
 31:   1511.67   0.001046    5.28  0.000216  ( 0.007196  0.005294  0.011665)
 32:   1731.36   0.001088    5.50  0.000196  ( 0.008833 -0.009586  0.005117)
 33:   1839.43   0.032281  163.13  0.005476  ( 0.043925  0.048566  0.034474)
 34:   2883.27   0.021413  108.21  0.002318  ( 0.001785 -0.017343  0.044874)
 35:   3020.48   0.003018   15.25  0.000312  ( 0.017318  0.000816  0.003355)
 36:   3033.11   0.006096   30.80  0.000627  ( 0.003534 -0.022465 -0.010488)
 37:   3067.46   0.002988   15.10  0.000304  (-0.001721 -0.010740  0.013625)
 38:   3105.24   0.003401   17.18  0.000342  ( 0.001440  0.000975 -0.018404)
 39:   3141.74   0.004583   23.16  0.000455  (-0.001147 -0.003040  0.021088)
 40:   3155.90   0.000874    4.42  0.000086  (-0.006940  0.004839 -0.003856)
 41:   3236.08   0.003530   17.84  0.000340  (-0.008794  0.006329  0.014935)

* The epsilon (eps) is given for a Dirac delta lineshape.
** The dipole moment derivative (T) already includes vibrational overlap.

The first frequency considered to be a vibration is 6
The total number of vibrations considered is 36


--------------------------
THERMOCHEMISTRY AT 298.15K
--------------------------

Temperature         ... 298.15 K
Pressure            ... 1.00 atm
Total Mass          ... 84.12 AMU

Throughout the following assumptions are being made:
  (1) The electronic state is orbitally nondegenerate
  (2) There are no thermally accessible electronically excited states
  (3) Hindered rotations indicated by low frequency modes are not
      treated as such but are treated as vibrations and this may
      cause some error
  (4) All equations used are the standard statistical mechanics
      equations for an ideal gas
  (5) All vibrations are strictly harmonic

freq.      59.56  E(vib)   ...       0.51 
freq.      92.39  E(vib)   ...       0.47 
freq.     113.90  E(vib)   ...       0.44 
freq.     264.87  E(vib)   ...       0.29 
freq.     351.70  E(vib)   ...       0.23 
freq.     427.32  E(vib)   ...       0.18 
freq.     503.69  E(vib)   ...       0.14 
freq.     659.03  E(vib)   ...       0.08 
freq.     749.58  E(vib)   ...       0.06 
freq.     871.87  E(vib)   ...       0.04 
freq.     901.42  E(vib)   ...       0.03 
freq.     945.93  E(vib)   ...       0.03 
freq.    1006.17  E(vib)   ...       0.02 
freq.    1031.17  E(vib)   ...       0.02 
freq.    1035.96  E(vib)   ...       0.02 
freq.    1066.11  E(vib)   ...       0.02 
freq.    1168.56  E(vib)   ...       0.01 
freq.    1239.74  E(vib)   ...       0.01 
freq.    1246.58  E(vib)   ...       0.01 
freq.    1334.70  E(vib)   ...       0.01 
freq.    1359.04  E(vib)   ...       0.01 
freq.    1371.45  E(vib)   ...       0.01 
freq.    1438.65  E(vib)   ...       0.00 
freq.    1475.63  E(vib)   ...       0.00 
freq.    1486.85  E(vib)   ...       0.00 
freq.    1511.67  E(vib)   ...       0.00 
freq.    1731.36  E(vib)   ...       0.00 
freq.    1839.43  E(vib)   ...       0.00 
freq.    2883.27  E(vib)   ...       0.00 
freq.    3020.48  E(vib)   ...       0.00 
freq.    3033.11  E(vib)   ...       0.00 
freq.    3067.46  E(vib)   ...       0.00 
freq.    3105.24  E(vib)   ...       0.00 
freq.    3141.74  E(vib)   ...       0.00 
freq.    3155.90  E(vib)   ...       0.00 
freq.    3236.08  E(vib)   ...       0.00 

------------
INNER ENERGY
------------

The inner energy is: U= E(el) + E(ZPE) + E(vib) + E(rot) + E(trans)
    E(el)   - is the total energy from the electronic structure calculation
              = E(kin-el) + E(nuc-el) + E(el-el) + E(nuc-nuc)
    E(ZPE)  - the the zero temperature vibrational energy from the frequency calculation
    E(vib)  - the the finite temperature correction to E(ZPE) due to population
              of excited vibrational states
    E(rot)  - is the rotational thermal energy
    E(trans)- is the translational thermal energy

Summary of contributions to the inner energy U:
Electronic energy                ...   -270.35931351 Eh
Zero point energy                ...      0.11829980 Eh      74.23 kcal/mol
Thermal vibrational correction   ...      0.00421483 Eh       2.64 kcal/mol
Thermal rotational correction    ...      0.00141627 Eh       0.89 kcal/mol
Thermal translational correction ...      0.00141627 Eh       0.89 kcal/mol
-----------------------------------------------------------------------
Total thermal energy                   -270.23396634 Eh


Summary of corrections to the electronic energy:
(perhaps to be used in another calculation)
Total thermal correction                  0.00704737 Eh       4.42 kcal/mol
Non-thermal (ZPE) correction              0.11829980 Eh      74.23 kcal/mol
-----------------------------------------------------------------------
Total correction                          0.12534718 Eh      78.66 kcal/mol


--------
ENTHALPY
--------

The enthalpy is H = U + kB*T
                kB is Boltzmann's constant
Total free energy                 ...   -270.23396634 Eh 
Thermal Enthalpy correction       ...      0.00094421 Eh       0.59 kcal/mol
-----------------------------------------------------------------------
Total Enthalpy                    ...   -270.23302213 Eh


Note: Only C1 symmetry has been detected, increase convergence thresholds 
      if your molecule has a higher symmetry. Symmetry factor of 1.0 is   
      used for the rotational entropy correction. 
 

Note: Rotational entropy computed according to Herzberg 
Infrared and Raman Spectra, Chapter V,1, Van Nostrand Reinhold, 1945 
Point Group:  C1, Symmetry Number:   1  
Rotational constants in cm-1:     0.210653     0.068159     0.057046 

Vibrational entropy computed according to the QRRHO of S. Grimme
Chem.Eur.J. 2012 18 9955


-------
ENTROPY
-------

The entropy contributions are T*S = T*(S(el)+S(vib)+S(rot)+S(trans))
     S(el)   - electronic entropy
     S(vib)  - vibrational entropy
     S(rot)  - rotational entropy
     S(trans)- translational entropy
The entropies will be listed as multiplied by the temperature to get
units of energy

Electronic entropy                ...      0.00000000 Eh      0.00 kcal/mol
Vibrational entropy               ...      0.00743159 Eh      4.66 kcal/mol
Rotational entropy                ...      0.01286613 Eh      8.07 kcal/mol
Translational entropy             ...      0.01862630 Eh     11.69 kcal/mol
-----------------------------------------------------------------------
Final entropy term                ...      0.03892402 Eh     24.43 kcal/mol

In case the symmetry of your molecule has not been determined correctly
or in case you have a reason to use a different symmetry number we print 
out the resulting rotational entropy values for sn=1,12 :
 --------------------------------------------------------
|  sn= 1 | S(rot)=       0.01286613 Eh      8.07 kcal/mol|
|  sn= 2 | S(rot)=       0.01221167 Eh      7.66 kcal/mol|
|  sn= 3 | S(rot)=       0.01182884 Eh      7.42 kcal/mol|
|  sn= 4 | S(rot)=       0.01155721 Eh      7.25 kcal/mol|
|  sn= 5 | S(rot)=       0.01134653 Eh      7.12 kcal/mol|
|  sn= 6 | S(rot)=       0.01117438 Eh      7.01 kcal/mol|
|  sn= 7 | S(rot)=       0.01102884 Eh      6.92 kcal/mol|
|  sn= 8 | S(rot)=       0.01090276 Eh      6.84 kcal/mol|
|  sn= 9 | S(rot)=       0.01079155 Eh      6.77 kcal/mol|
|  sn=10 | S(rot)=       0.01069207 Eh      6.71 kcal/mol|
|  sn=11 | S(rot)=       0.01060208 Eh      6.65 kcal/mol|
|  sn=12 | S(rot)=       0.01051992 Eh      6.60 kcal/mol|
 --------------------------------------------------------


-------------------
GIBBS FREE ENERGY
-------------------

The Gibbs free energy is G = H - T*S

Total enthalpy                    ...   -270.23302213 Eh 
Total entropy correction          ...     -0.03892402 Eh    -24.43 kcal/mol
-----------------------------------------------------------------------
Final Gibbs free energy         ...   -270.27194615 Eh

For completeness - the Gibbs free energy minus the electronic energy
G-E(el)                           ...      0.08736737 Eh     54.82 kcal/mol


Timings for individual modules:

Sum of individual times         ...      331.253 sec (=   5.521 min)
GTO integral calculation        ...       14.211 sec (=   0.237 min)   4.3 %
SCF iterations                  ...      229.343 sec (=   3.822 min)  69.2 %
SCF Gradient evaluation         ...       69.920 sec (=   1.165 min)  21.1 %
Geometry relaxation             ...        1.346 sec (=   0.022 min)   0.4 %
Analytical frequency calculation...       16.433 sec (=   0.274 min)   5.0 %
                             ****ORCA TERMINATED NORMALLY****
TOTAL RUN TIME: 0 days 0 hours 5 minutes 42 seconds 433 msec
