
                                 *****************
                                 * O   R   C   A *
                                 *****************

                                            #,                                       
                                            ###                                      
                                            ####                                     
                                            #####                                    
                                            ######                                   
                                           ########,                                 
                                     ,,################,,,,,                         
                               ,,#################################,,                 
                          ,,##########################################,,             
                       ,#########################################, ''#####,          
                    ,#############################################,,   '####,        
                  ,##################################################,,,,####,       
                ,###########''''           ''''###############################       
              ,#####''   ,,,,##########,,,,          '''####'''          '####       
            ,##' ,,,,###########################,,,                        '##       
           ' ,,###''''                  '''############,,,                           
         ,,##''                                '''############,,,,        ,,,,,,###''
      ,#''                                            '''#######################'''  
     '                                                          ''''####''''         
             ,#######,   #######,   ,#######,      ##                                
            ,#'     '#,  ##    ##  ,#'     '#,    #''#        ######   ,####,        
            ##       ##  ##   ,#'  ##            #'  '#       #        #'  '#        
            ##       ##  #######   ##           ,######,      #####,   #    #        
            '#,     ,#'  ##    ##  '#,     ,#' ,#      #,         ##   #,  ,#        
             '#######'   ##     ##  '#######'  #'      '#     #####' # '####'        



                  #######################################################
                  #                        -***-                        #
                  #          Department of theory and spectroscopy      #
                  #    Directorship and core code : Frank Neese         #
                  #        Max Planck Institute fuer Kohlenforschung    #
                  #                Kaiser Wilhelm Platz 1               #
                  #                 D-45470 Muelheim/Ruhr               #
                  #                      Germany                        #
                  #                                                     #
                  #                  All rights reserved                #
                  #                        -***-                        #
                  #######################################################


                         Program Version 5.0.1 -  RELEASE  -


 With contributions from (in alphabetic order):
   Daniel Aravena         : Magnetic Suceptibility
   Michael Atanasov       : Ab Initio Ligand Field Theory (pilot matlab implementation)
   Alexander A. Auer      : GIAO ZORA, VPT2 properties, NMR spectrum
   Ute Becker             : Parallelization
   Giovanni Bistoni       : ED, misc. LED, open-shell LED, HFLD
   Martin Brehm           : Molecular dynamics
   Dmytro Bykov           : SCF Hessian
   Vijay G. Chilkuri      : MRCI spin determinant printing, contributions to CSF-ICE
   Dipayan Datta          : RHF DLPNO-CCSD density
   Achintya Kumar Dutta   : EOM-CC, STEOM-CC
   Dmitry Ganyushin       : Spin-Orbit,Spin-Spin,Magnetic field MRCI
   Miquel Garcia          : C-PCM and meta-GGA Hessian, CC/C-PCM, Gaussian charge scheme
   Yang Guo               : DLPNO-NEVPT2, F12-NEVPT2, CIM, IAO-localization
   Andreas Hansen         : Spin unrestricted coupled pair/coupled cluster methods
   Benjamin Helmich-Paris : MC-RPA, TRAH-SCF, COSX integrals
   Lee Huntington         : MR-EOM, pCC
   Robert Izsak           : Overlap fitted RIJCOSX, COSX-SCS-MP3, EOM
   Marcus Kettner         : VPT2
   Christian Kollmar      : KDIIS, OOCD, Brueckner-CCSD(T), CCSD density, CASPT2, CASPT2-K
   Simone Kossmann        : Meta GGA functionals, TD-DFT gradient, OOMP2, MP2 Hessian
   Martin Krupicka        : Initial AUTO-CI
   Lucas Lang             : DCDCAS
   Marvin Lechner         : AUTO-CI (C++ implementation), FIC-MRCC
   Dagmar Lenk            : GEPOL surface, SMD
   Dimitrios Liakos       : Extrapolation schemes; Compound Job, initial MDCI parallelization
   Dimitrios Manganas     : Further ROCIS development; embedding schemes
   Dimitrios Pantazis     : SARC Basis sets
   Anastasios Papadopoulos: AUTO-CI, single reference methods and gradients
   Taras Petrenko         : DFT Hessian,TD-DFT gradient, ASA, ECA, R-Raman, ABS, FL, XAS/XES, NRVS
   Peter Pinski           : DLPNO-MP2, DLPNO-MP2 Gradient
   Christoph Reimann      : Effective Core Potentials
   Marius Retegan         : Local ZFS, SOC
   Christoph Riplinger    : Optimizer, TS searches, QM/MM, DLPNO-CCSD(T), (RO)-DLPNO pert. Triples
   Tobias Risthaus        : Range-separated hybrids, TD-DFT gradient, RPA, STAB
   Michael Roemelt        : Original ROCIS implementation
   Masaaki Saitow         : Open-shell DLPNO-CCSD energy and density
   Barbara Sandhoefer     : DKH picture change effects
   Avijit Sen             : IP-ROCIS
   Kantharuban Sivalingam : CASSCF convergence, NEVPT2, FIC-MRCI
   Bernardo de Souza      : ESD, SOC TD-DFT
   Georgi Stoychev        : AutoAux, RI-MP2 NMR, DLPNO-MP2 response
   Willem Van den Heuvel  : Paramagnetic NMR
   Boris Wezisla          : Elementary symmetry handling
   Frank Wennmohs         : Technical directorship


 We gratefully acknowledge several colleagues who have allowed us to
 interface, adapt or use parts of their codes:
   Stefan Grimme, W. Hujo, H. Kruse, P. Pracht,  : VdW corrections, initial TS optimization,
                  C. Bannwarth, S. Ehlert          DFT functionals, gCP, sTDA/sTD-DF
   Ed Valeev, F. Pavosevic, A. Kumar             : LibInt (2-el integral package), F12 methods
   Garnet Chan, S. Sharma, J. Yang, R. Olivares  : DMRG
   Ulf Ekstrom                                   : XCFun DFT Library
   Mihaly Kallay                                 : mrcc  (arbitrary order and MRCC methods)
   Jiri Pittner, Ondrej Demel                    : Mk-CCSD
   Frank Weinhold                                : gennbo (NPA and NBO analysis)
   Christopher J. Cramer and Donald G. Truhlar   : smd solvation model
   Lars Goerigk                                  : TD-DFT with DH, B97 family of functionals
   V. Asgeirsson, H. Jonsson                     : NEB implementation
   FAccTs GmbH                                   : IRC, NEB, NEB-TS, DLPNO-Multilevel, CI-OPT
                                                   MM, QMMM, 2- and 3-layer-ONIOM, Crystal-QMMM,
                                                   LR-CPCM, SF, NACMEs, symmetry and pop. for TD-DFT,
                                                   nearIR, NL-DFT gradient (VV10), updates on ESD,
                                                   ML-optimized integration grids
   S Lehtola, MJT Oliveira, MAL Marques          : LibXC Library
   Liviu Ungur et al                             : ANISO software


 Your calculation uses the libint2 library for the computation of 2-el integrals
 For citations please refer to: http://libint.valeyev.net

 Your ORCA version has been built with support for libXC version: 5.1.0
 For citations please refer to: https://tddft.org/programs/libxc/

 This ORCA versions uses:
   CBLAS   interface :  Fast vector & matrix operations
   LAPACKE interface :  Fast linear algebra routines
   SCALAPACK package :  Parallel linear algebra routines
   Shared memory     :  Shared parallel matrices
   BLAS/LAPACK       :  OpenBLAS 0.3.15  USE64BITINT DYNAMIC_ARCH NO_AFFINITY SkylakeX SINGLE_THREADED
        Core in use  :  SkylakeX
   Copyright (c) 2011-2014, The OpenBLAS Project


================================================================================

----- Orbital basis set information -----
Your calculation utilizes the basis: 6-31G(d)
   H-He, Li-Ne : W. J. Hehre, R. Ditchfield and J.A. Pople, J. Chem. Phys. 56, 2257 (1972).
                 Note: He and Ne are unpublished basis sets taken from the Gaussian program.
                 Note: Li and B from J. D. Dill and J. A. Pople, J. Chem. Phys. 62, 2921 (1975).
   Na - Ar     : M. M. Francl, W. J. Pietro, W. J. Hehre, J. S. Binkley, M. S. Gordon, 
                 D. J. DeFrees and J. A. Pople, J. Chem. Phys. 77, 3654 (1982).
   K - Zn      : V. A. Rassolov, J. A. Pople, M. A. Ratner, and T. L. Windus, J. Chem. Phys. 109, 1223 (1998).

----- AuxJ basis set information -----
Your calculation utilizes the auxiliary basis: def2/J
   F. Weigend, Phys. Chem. Chem. Phys. 8, 1057 (2006).

================================================================================
                                        WARNINGS
                       Please study these warnings very carefully!
================================================================================


WARNING: Geometry Optimization
  ===> : Switching off AutoStart
         For restart on a previous wavefunction, please use MOREAD

INFO   : the flag for use of the SHARK integral package has been found!

================================================================================
                                       INPUT FILE
================================================================================
NAME = claisen_ts_QRCF.inp
|  1> ! opt freq b3lyp 6-31G(d)
|  2> %maxcore 2000
|  3> 
|  4> # claisen_ts_QRCF
|  5> 
|  6> * xyz 0 1
|  7>  C  -1.56584310   0.73334610  -0.31113370
|  8>  C  -1.29059370  -0.45088390   0.26549730
|  9>  O  -0.40659150  -1.33514620  -0.23288450
| 10>  C   1.14611610  -0.93967340   0.16020250
| 11>  C   1.36978850   0.42933060  -0.30232580
| 12>  C   0.77988430   1.45082070   0.34221670
| 13>  H  -2.24695090   1.43954550   0.15583870
| 14>  H  -1.20223800   0.96828930  -1.31375980
| 15>  H  -1.67192470  -0.66439710   1.27264540
| 16>  H   1.67997550  -1.73129690  -0.36178140
| 17>  H   1.18966540  -1.07168970   1.25225580
| 18>  H   1.69900280   0.56097630  -1.33142000
| 19>  H   0.69730660   2.44465560  -0.09116450
| 20>  H   0.43415730   1.35409650   1.37393050
| 21> *
| 22> 
| 23> 
| 24>                          ****END OF INPUT****
================================================================================

                       *****************************
                       * Geometry Optimization Run *
                       *****************************

Geometry optimization settings:
Update method            Update   .... BFGS
Choice of coordinates    CoordSys .... Z-matrix Internals
Initial Hessian          InHess   .... Almoef's Model

Convergence Tolerances:
Energy Change            TolE     ....  5.0000e-06 Eh
Max. Gradient            TolMAXG  ....  3.0000e-04 Eh/bohr
RMS Gradient             TolRMSG  ....  1.0000e-04 Eh/bohr
Max. Displacement        TolMAXD  ....  4.0000e-03 bohr
RMS Displacement         TolRMSD  ....  2.0000e-03 bohr
Strict Convergence                ....  False
------------------------------------------------------------------------------
                        ORCA OPTIMIZATION COORDINATE SETUP
------------------------------------------------------------------------------

The optimization will be done in new redundant internal coordinates
Making redundant internal coordinates   ...  (new redundants) done
Evaluating the initial hessian          ...  (Almloef) done
Evaluating the coordinates              ...  done
Calculating the B-matrix                .... done
Calculating the G-matrix                .... done
Diagonalizing the G-matrix              .... done
Small eigenvalue found = 1.251e-02
The first mode is                       ....   15
The number of degrees of freedom        ....   36

    -----------------------------------------------------------------
                    Redundant Internal Coordinates


    -----------------------------------------------------------------
         Definition                    Initial Value    Approx d2E/dq
    -----------------------------------------------------------------
      1. B(C   1,C   0)                  1.3456         0.735462   
      2. B(O   2,C   1)                  1.3460         0.657728   
      3. B(C   3,O   2)                  1.6498         0.215473   
      4. B(C   4,C   3)                  1.4622         0.479171   
      5. B(C   5,C   4)                  1.3442         0.739291   
      6. B(H   6,C   0)                  1.0866         0.364633   
      7. B(H   7,C   0)                  1.0921         0.357342   
      8. B(H   8,C   1)                  1.0979         0.349821   
      9. B(H   9,C   3)                  1.0882         0.362513   
     10. B(H  10,C   3)                  1.1009         0.346009   
     11. B(H  11,C   4)                  1.0885         0.362142   
     12. B(H  12,C   5)                  1.0874         0.363613   
     13. B(H  13,C   5)                  1.0924         0.356952   
     14. A(H   6,C   0,H   7)          117.6087         0.291060   
     15. A(C   1,C   0,H   6)          121.0664         0.364087   
     16. A(C   1,C   0,H   7)          120.9739         0.362833   
     17. A(C   0,C   1,H   8)          119.5522         0.361517   
     18. A(C   0,C   1,O   2)          123.6303         0.449502   
     19. A(O   2,C   1,H   8)          116.1048         0.352527   
     20. A(C   1,O   2,C   3)          111.8642         0.359797   
     21. A(O   2,C   3,C   4)          107.0391         0.343154   
     22. A(C   4,C   3,H  10)          114.8350         0.335719   
     23. A(O   2,C   3,H  10)          104.1725         0.293199   
     24. A(C   4,C   3,H   9)          117.0208         0.338335   
     25. A(O   2,C   3,H   9)           99.9653         0.295364   
     26. A(H   9,C   3,H  10)          111.6662         0.289327   
     27. A(C   3,C   4,H  11)          117.2945         0.338277   
     28. A(C   5,C   4,H  11)          119.6151         0.363984   
     29. A(C   3,C   4,C   5)          119.5163         0.427745   
     30. A(H  12,C   5,H  13)          115.6784         0.290882   
     31. A(C   4,C   5,H  13)          121.6326         0.363087   
     32. A(C   4,C   5,H  12)          122.4649         0.364236   
     33. D(H   8,C   1,C   0,H   6)     -6.6792         0.038432   
     34. D(H   8,C   1,C   0,H   7)   -179.7144         0.038432   
     35. D(O   2,C   1,C   0,H   7)     10.3455         0.038432   
     36. D(O   2,C   1,C   0,H   6)   -176.6193         0.038432   
     37. D(C   3,O   2,C   1,H   8)    -89.3863         0.032035   
     38. D(C   3,O   2,C   1,C   0)     80.8715         0.032035   
     39. D(H  10,C   3,O   2,C   1)     66.8525         0.004423   
     40. D(H   9,C   3,O   2,C   1)   -177.6170         0.004423   
     41. D(C   4,C   3,O   2,C   1)    -55.1850         0.004423   
     42. D(H  11,C   4,C   3,H   9)     24.1705         0.016930   
     43. D(H  11,C   4,C   3,O   2)    -86.8973         0.016930   
     44. D(C   5,C   4,C   3,H  10)    -43.3693         0.016930   
     45. D(C   5,C   4,C   3,H   9)   -177.2129         0.016930   
     46. D(H  11,C   4,C   3,H  10)    158.0141         0.016930   
     47. D(C   5,C   4,C   3,O   2)     71.7193         0.016930   
     48. D(H  13,C   5,C   4,H  11)    179.8118         0.038871   
     49. D(H  13,C   5,C   4,C   3)     21.6940         0.038871   
     50. D(H  12,C   5,C   4,H  11)     -5.8643         0.038871   
     51. D(H  12,C   5,C   4,C   3)   -163.9821         0.038871   
    -----------------------------------------------------------------

Number of atoms                         .... 14
Number of degrees of freedom            .... 51

         *************************************************************
         *                GEOMETRY OPTIMIZATION CYCLE   1            *
         *************************************************************
---------------------------------
CARTESIAN COORDINATES (ANGSTROEM)
---------------------------------
  C     -1.565843    0.733346   -0.311134
  C     -1.290594   -0.450884    0.265497
  O     -0.406591   -1.335146   -0.232884
  C      1.146116   -0.939673    0.160202
  C      1.369788    0.429331   -0.302326
  C      0.779884    1.450821    0.342217
  H     -2.246951    1.439545    0.155839
  H     -1.202238    0.968289   -1.313760
  H     -1.671925   -0.664397    1.272645
  H      1.679976   -1.731297   -0.361781
  H      1.189665   -1.071690    1.252256
  H      1.699003    0.560976   -1.331420
  H      0.697307    2.444656   -0.091164
  H      0.434157    1.354096    1.373930

----------------------------
CARTESIAN COORDINATES (A.U.)
----------------------------
  NO LB      ZA    FRAG     MASS         X           Y           Z
   0 C     6.0000    0    12.011   -2.959015    1.385823   -0.587957
   1 C     6.0000    0    12.011   -2.438869   -0.852047    0.501717
   2 O     8.0000    0    15.999   -0.768347   -2.523061   -0.440088
   3 C     6.0000    0    12.011    2.165846   -1.775725    0.302739
   4 C     6.0000    0    12.011    2.588525    0.811317   -0.571313
   5 C     6.0000    0    12.011    1.473768    2.741654    0.646696
   6 H     1.0000    0     1.008   -4.246122    2.720347    0.294492
   7 H     1.0000    0     1.008   -2.271901    1.829802   -2.482646
   8 H     1.0000    0     1.008   -3.159480   -1.255529    2.404951
   9 H     1.0000    0     1.008    3.174694   -3.271677   -0.683668
  10 H     1.0000    0     1.008    2.248142   -2.025200    2.366421
  11 H     1.0000    0     1.008    3.210650    1.060092   -2.516019
  12 H     1.0000    0     1.008    1.317719    4.619730   -0.172276
  13 H     1.0000    0     1.008    0.820438    2.558872    2.596352

--------------------------------
INTERNAL COORDINATES (ANGSTROEM)
--------------------------------
 C      0   0   0     0.000000000000     0.00000000     0.00000000
 C      1   0   0     1.345609986312     0.00000000     0.00000000
 O      2   1   0     1.346017876322   123.63029374     0.00000000
 C      3   2   1     1.649793022232   111.86419283    80.87149978
 C      4   3   2     1.462235864298   107.03910214   304.81503480
 C      5   4   3     1.344196423103   119.51625264    71.71926467
 H      1   2   3     1.086594979808   121.06640637   183.38074243
 H      1   2   3     1.092092520061   120.97388452    10.34552330
 H      2   1   3     1.097883652064   119.55222377   169.94008542
 H      4   3   2     1.088182345280    99.96534431   182.38299663
 H      4   3   2     1.100865684376   104.17250507    66.85252239
 H      5   4   3     1.088461077911   117.29450051   273.10265558
 H      6   5   4     1.087357415714   122.46486585   196.01791474
 H      6   5   4     1.092390083489   121.63264139    21.69404651

---------------------------
INTERNAL COORDINATES (A.U.)
---------------------------
 C      0   0   0     0.000000000000     0.00000000     0.00000000
 C      1   0   0     2.542834357198     0.00000000     0.00000000
 O      2   1   0     2.543605157610   123.63029374     0.00000000
 C      3   2   1     3.117656989673   111.86419283    80.87149978
 C      4   3   2     2.763225326720   107.03910214   304.81503480
 C      5   4   3     2.540163109861   119.51625264    71.71926467
 H      1   2   3     2.053366930330   121.06640637   183.38074243
 H      1   2   3     2.063755775819   120.97388452    10.34552330
 H      2   1   3     2.074699429310   119.55222377   169.94008542
 H      4   3   2     2.056366616348    99.96534431   182.38299663
 H      4   3   2     2.080334653703   104.17250507    66.85252239
 H      5   4   3     2.056893344684   117.29450051   273.10265558
 H      6   5   4     2.054807725388   122.46486585   196.01791474
 H      6   5   4     2.064318089206   121.63264139    21.69404651

---------------------
BASIS SET INFORMATION
---------------------
There are 3 groups of distinct atoms

 Group   1 Type C   : 10s4p1d contracted to 3s2p1d pattern {631/31/1}
 Group   2 Type O   : 10s4p1d contracted to 3s2p1d pattern {631/31/1}
 Group   3 Type H   : 4s contracted to 2s pattern {31}

Atom   0C    basis set group =>   1
Atom   1C    basis set group =>   1
Atom   2O    basis set group =>   2
Atom   3C    basis set group =>   1
Atom   4C    basis set group =>   1
Atom   5C    basis set group =>   1
Atom   6H    basis set group =>   3
Atom   7H    basis set group =>   3
Atom   8H    basis set group =>   3
Atom   9H    basis set group =>   3
Atom  10H    basis set group =>   3
Atom  11H    basis set group =>   3
Atom  12H    basis set group =>   3
Atom  13H    basis set group =>   3
---------------------------------
AUXILIARY/J BASIS SET INFORMATION
---------------------------------
There are 3 groups of distinct atoms

 Group   1 Type C   : 12s5p4d2f1g contracted to 6s4p3d1f1g pattern {711111/2111/211/2/1}
 Group   2 Type O   : 12s5p4d2f1g contracted to 6s4p3d1f1g pattern {711111/2111/211/2/1}
 Group   3 Type H   : 5s2p1d contracted to 3s1p1d pattern {311/2/1}

Atom   0C    basis set group =>   1
Atom   1C    basis set group =>   1
Atom   2O    basis set group =>   2
Atom   3C    basis set group =>   1
Atom   4C    basis set group =>   1
Atom   5C    basis set group =>   1
Atom   6H    basis set group =>   3
Atom   7H    basis set group =>   3
Atom   8H    basis set group =>   3
Atom   9H    basis set group =>   3
Atom  10H    basis set group =>   3
Atom  11H    basis set group =>   3
Atom  12H    basis set group =>   3
Atom  13H    basis set group =>   3
------------------------------------------------------------------------------
                           ORCA GTO INTEGRAL CALCULATION
                           -- RI-GTO INTEGRALS CHOSEN --
------------------------------------------------------------------------------
------------------------------------------------------------------------------
                   ___                                                        
                  /   \      - P O W E R E D   B Y -                         
                 /     \                                                     
                 |  |  |   _    _      __       _____    __    __             
                 |  |  |  | |  | |    /  \     |  _  \  |  |  /  |          
                  \  \/   | |  | |   /    \    | | | |  |  | /  /          
                 / \  \   | |__| |  /  /\  \   | |_| |  |  |/  /          
                |  |  |   |  __  | /  /__\  \  |    /   |      \           
                |  |  |   | |  | | |   __   |  |    \   |  |\   \          
                \     /   | |  | | |  |  |  |  | |\  \  |  | \   \       
                 \___/    |_|  |_| |__|  |__|  |_| \__\ |__|  \__/        
                                                                              
                      - O R C A' S   B I G   F R I E N D -                    
                                      &                                       
                       - I N T E G R A L  F E E D E R -                       
                                                                              
 v1 FN, 2020, v2 2021                                                         
------------------------------------------------------------------------------


Reading SHARK input file claisen_ts_QRCF.SHARKINP.tmp ... ok
----------------------
SHARK INTEGRAL PACKAGE
----------------------

Number of atoms                             ...     14
Number of basis functions                   ...    100
Number of shells                            ...     52
Maximum angular momentum                    ...      2
Integral batch strategy                     ... SHARK/LIBINT Hybrid
RI-J (if used) integral strategy            ... SPLIT-RIJ (Revised 2003 algorithm where possible)
Printlevel                                  ...      1
Contraction scheme used                     ... SEGMENTED contraction
Coulomb Range Separation                    ... NOT USED
Exchange Range Separation                   ... NOT USED
Finite Nucleus Model                        ... NOT USED
Auxiliary Coulomb fitting basis             ... AVAILABLE
   # of basis functions in Aux-J            ...    382
   # of shells in Aux-J                     ...    130
   Maximum angular momentum in Aux-J        ...      4
Auxiliary J/K fitting basis                 ... NOT available
Auxiliary Correlation fitting basis         ... NOT available
Auxiliary 'external' fitting basis          ... NOT available
Integral threshold                          ...     2.500000e-11
Primitive cut-off                           ...     2.500000e-12
Primitive pair pre-selection threshold      ...     2.500000e-12

Calculating pre-screening integrals         ... done (  0.0 sec) Dimension = 52
Organizing shell pair data                  ... done (  0.0 sec)
Shell pair information
Total number of shell pairs                 ...      1378
Shell pairs after pre-screening             ...      1362
Total number of primitive shell pairs       ...      7653
Primitive shell pairs kept                  ...      5386
          la=0 lb=0:    579 shell pairs
          la=1 lb=0:    408 shell pairs
          la=1 lb=1:     78 shell pairs
          la=2 lb=0:    204 shell pairs
          la=2 lb=1:     72 shell pairs
          la=2 lb=2:     21 shell pairs

Calculating one electron integrals          ... done (  0.0 sec)
Calculating RI/J V-Matrix + Cholesky decomp.... done (  0.0 sec)
Calculating Nuclear repulsion               ... done (  0.0 sec) ENN=    230.581076509141 Eh

SHARK setup successfully completed in   0.1 seconds

Maximum memory used throughout the entire GTOINT-calculation: 13.1 MB
-------------------------------------------------------------------------------
                                 ORCA SCF
-------------------------------------------------------------------------------

------------
SCF SETTINGS
------------
Hamiltonian:
 Density Functional     Method          .... DFT(GTOs)
 Exchange Functional    Exchange        .... B88
   X-Alpha parameter    XAlpha          ....  0.666667
   Becke's b parameter  XBeta           ....  0.004200
 Correlation Functional Correlation     .... LYP
 LDA part of GGA corr.  LDAOpt          .... VWN-5
 Gradients option       PostSCFGGA      .... off
 Hybrid DFT is turned on
   Fraction HF Exchange ScalHFX         ....  0.200000
   Scaling of DF-GGA-X  ScalDFX         ....  0.720000
   Scaling of DF-GGA-C  ScalDFC         ....  0.810000
   Scaling of DF-LDA-C  ScalLDAC        ....  1.000000
   Perturbative correction              ....  0.000000
   Density functional embedding theory  .... OFF
   NL short-range parameter             ....  4.800000
 RI-approximation to the Coulomb term is turned on
   Number of AuxJ basis functions       .... 382
   RIJ-COSX (HFX calculated with COS-X)).... on


General Settings:
 Integral files         IntName         .... claisen_ts_QRCF
 Hartree-Fock type      HFTyp           .... RHF
 Total Charge           Charge          ....    0
 Multiplicity           Mult            ....    1
 Number of Electrons    NEL             ....   46
 Basis Dimension        Dim             ....  100
 Nuclear Repulsion      ENuc            ....    230.5810765091 Eh

Convergence Acceleration:
 DIIS                   CNVDIIS         .... on
   Start iteration      DIISMaxIt       ....    12
   Startup error        DIISStart       ....  0.200000
   # of expansion vecs  DIISMaxEq       ....     5
   Bias factor          DIISBfac        ....   1.050
   Max. coefficient     DIISMaxC        ....  10.000
 Trust-Rad. Augm. Hess. CNVTRAH         .... auto
   Auto Start mean grad. ratio tolernc. ....  1.125000
   Auto Start start iteration           ....    20
   Auto Start num. interpolation iter.  ....    10
   Max. Number of Micro iterations      ....    16
   Max. Number of Macro iterations      .... Maxiter - #DIIS iter
   Number of Davidson start vectors     ....     2
   Converg. threshold I  (grad. norm)   ....   1.000e-05
   Converg. threshold II (energy diff.) ....   1.000e-08
   Grad. Scal. Fac. for Micro threshold ....   0.100
   Minimum threshold for Micro iter.    ....   0.010
   NR start threshold (gradient norm)   ....   0.001
   Initial trust radius                 ....   0.400
   Minimum AH scaling param. (alpha)    ....   1.000
   Maximum AH scaling param. (alpha)    .... 1000.000
   Orbital update algorithm             .... Taylor
   White noise on init. David. guess    .... on
   Maximum white noise                  ....   0.010
   Quad. conv. algorithm                .... NR
 SOSCF                  CNVSOSCF        .... on
   Start iteration      SOSCFMaxIt      ....   150
   Startup grad/error   SOSCFStart      ....  0.003300
 Level Shifting         CNVShift        .... on
   Level shift para.    LevelShift      ....    0.2500
   Turn off err/grad.   ShiftErr        ....    0.0010
 Zerner damping         CNVZerner       .... off
 Static damping         CNVDamp         .... on
   Fraction old density DampFac         ....    0.7000
   Max. Damping (<1)    DampMax         ....    0.9800
   Min. Damping (>=0)   DampMin         ....    0.0000
   Turn off err/grad.   DampErr         ....    0.1000
 Fernandez-Rico         CNVRico         .... off

SCF Procedure:
 Maximum # iterations   MaxIter         ....   125
 SCF integral mode      SCFMode         .... Direct
   Integral package                     .... SHARK and LIBINT hybrid scheme
 Reset frequency        DirectResetFreq ....    20
 Integral Threshold     Thresh          ....  2.500e-11 Eh
 Primitive CutOff       TCut            ....  2.500e-12 Eh

Convergence Tolerance:
 Convergence Check Mode ConvCheckMode   .... Total+1el-Energy
 Convergence forced     ConvForced      .... 0
 Energy Change          TolE            ....  1.000e-08 Eh
 1-El. energy change                    ....  1.000e-05 Eh
 Orbital Gradient       TolG            ....  1.000e-05
 Orbital Rotation angle TolX            ....  1.000e-05
 DIIS Error             TolErr          ....  5.000e-07


Diagonalization of the overlap matrix:
Smallest eigenvalue                        ... 4.817e-03
Time for diagonalization                   ...    0.001 sec
Threshold for overlap eigenvalues          ... 1.000e-08
Number of eigenvalues below threshold      ... 0
Time for construction of square roots      ...    0.000 sec
Total time needed                          ...    0.002 sec

Time for model grid setup =    0.107 sec

------------------------------
INITIAL GUESS: MODEL POTENTIAL
------------------------------
Loading Hartree-Fock densities                     ... done
Calculating cut-offs                               ... done
Initializing the effective Hamiltonian             ... done
Setting up the integral package (SHARK)            ... done
Starting the Coulomb interaction                   ... done (   0.1 sec)
Reading the grid                                   ... done
Mapping shells                                     ... done
Starting the XC term evaluation                    ... done (   0.1 sec)
  promolecular density results
     # of electrons  =     45.998378101
     EX              =    -36.192448432
     EC              =     -1.513213366
     EX+EC           =    -37.705661798
Transforming the Hamiltonian                       ... done (   0.0 sec)
Diagonalizing the Hamiltonian                      ... done (   0.0 sec)
Back transforming the eigenvectors                 ... done (   0.0 sec)
Now organizing SCF variables                       ... done
                      ------------------
                      INITIAL GUESS DONE (   0.3 sec)
                      ------------------
-------------------
DFT GRID GENERATION
-------------------

General Integration Accuracy     IntAcc      ... 4.388
Radial Grid Type                 RadialGrid  ... OptM3 with GC (2021)
Angular Grid (max. ang.)         AngularGrid ... 4 (Lebedev-302)
Angular grid pruning method      GridPruning ... 4 (adaptive)
Weight generation scheme         WeightScheme... Becke
Basis function cutoff            BFCut       ... 1.0000e-11
Integration weight cutoff        WCut        ... 1.0000e-14
Angular grids for H and He will be reduced by one unit
Partially contracted basis set               ... off
Rotationally invariant grid construction     ... off

Total number of grid points                  ...    62030
Total number of batches                      ...      978
Average number of points per batch           ...       63
Average number of grid points per atom       ...     4431
Time for grid setup =    0.436 sec

--------------------
COSX GRID GENERATION
--------------------

GRIDX 1
-------
General Integration Accuracy     IntAcc      ... 3.816
Radial Grid Type                 RadialGrid  ... OptM3 with GC (2021)
Angular Grid (max. ang.)         AngularGrid ... 1 (Lebedev-50)
Angular grid pruning method      GridPruning ... 4 (adaptive)
Weight generation scheme         WeightScheme... Becke
Basis function cutoff            BFCut       ... 1.0000e-11
Integration weight cutoff        WCut        ... 1.0000e-14
Angular grids for H and He will be reduced by one unit
Partially contracted basis set               ... on
Rotationally invariant grid construction     ... off

Total number of grid points                  ...     7952
Total number of batches                      ...      132
Average number of points per batch           ...       60
Average number of grid points per atom       ...      568
UseSFitting                                  ... on

GRIDX 2
-------
General Integration Accuracy     IntAcc      ... 4.020
Radial Grid Type                 RadialGrid  ... OptM3 with GC (2021)
Angular Grid (max. ang.)         AngularGrid ... 2 (Lebedev-110)
Angular grid pruning method      GridPruning ... 4 (adaptive)
Weight generation scheme         WeightScheme... Becke
Basis function cutoff            BFCut       ... 1.0000e-11
Integration weight cutoff        WCut        ... 1.0000e-14
Angular grids for H and He will be reduced by one unit
Partially contracted basis set               ... on
Rotationally invariant grid construction     ... off

Total number of grid points                  ...    16975
Total number of batches                      ...      273
Average number of points per batch           ...       62
Average number of grid points per atom       ...     1212
UseSFitting                                  ... on

GRIDX 3
-------
General Integration Accuracy     IntAcc      ... 4.338
Radial Grid Type                 RadialGrid  ... OptM3 with GC (2021)
Angular Grid (max. ang.)         AngularGrid ... 3 (Lebedev-194)
Angular grid pruning method      GridPruning ... 4 (adaptive)
Weight generation scheme         WeightScheme... Becke
Basis function cutoff            BFCut       ... 1.0000e-11
Integration weight cutoff        WCut        ... 1.0000e-14
Angular grids for H and He will be reduced by one unit
Partially contracted basis set               ... on
Rotationally invariant grid construction     ... off

Total number of grid points                  ...    37208
Total number of batches                      ...      588
Average number of points per batch           ...       63
Average number of grid points per atom       ...     2658
UseSFitting                                  ... on

Time for X-Grid setup             =    0.477 sec

--------------
SCF ITERATIONS
--------------
ITER       Energy         Delta-E        Max-DP      RMS-DP      [F,P]     Damp
               ***  Starting incremental Fock matrix formation  ***
  0   -270.1371916080   0.000000000000 0.05702887  0.00283883  0.1743917 0.7000
  1   -270.2096305961  -0.072438988080 0.03916450  0.00211882  0.0813186 0.7000
                               ***Turning on DIIS***
  2   -270.2407226568  -0.031092060746 0.06643835  0.00363264  0.0317764 0.0000
  3   -270.2854396037  -0.044716946907 0.02717820  0.00148651  0.0440222 0.0000
  4   -270.2968889362  -0.011449332449 0.00901387  0.00043895  0.0071912 0.0000
  5   -270.2973901375  -0.000501201287 0.00348004  0.00015477  0.0056505 0.0000
                      *** Initiating the SOSCF procedure ***
                           *** Shutting down DIIS ***
                      *** Re-Reading the Fockian *** 
                      *** Removing any level shift *** 
ITER      Energy       Delta-E        Grad      Rot      Max-DP    RMS-DP
  6   -270.29744540  -0.0000552658  0.000456  0.000456  0.001070  0.000069
               *** Restarting incremental Fock matrix formation ***
  7   -270.29743441   0.0000109923  0.000490  0.001982  0.001658  0.000064
  8   -270.29742769   0.0000067213  0.001033  0.001376  0.001094  0.000043
  9   -270.29743669  -0.0000089963  0.000057  0.000200  0.000197  0.000008
 10   -270.29743659   0.0000000980  0.000095  0.000124  0.000129  0.000005
 11   -270.29743673  -0.0000001426  0.000003  0.000006  0.000015  0.000001
 12   -270.29743673   0.0000000010  0.000003  0.000003  0.000009  0.000000
                  ***Gradient check signals convergence***
              ***Rediagonalizing the Fockian in SOSCF/NRSCF***

               *****************************************************
               *                     SUCCESS                       *
               *           SCF CONVERGED AFTER  13 CYCLES          *
               *****************************************************

Old exchange energy                            =     -7.378554361 Eh
New exchange energy                            =     -7.378562473 Eh
Exchange energy change after final integration =     -0.000008113 Eh
Total energy after final integration           =   -270.297444843 Eh
Final COS-X integration done in                =     2.998 sec

----------------
TOTAL SCF ENERGY
----------------

Total Energy       :         -270.29744484 Eh           -7355.16740 eV

Components:
Nuclear Repulsion  :          230.58107651 Eh            6274.43008 eV
Electronic Energy  :         -500.87852135 Eh          -13629.59748 eV
One Electron Energy:         -822.42934454 Eh          -22379.44021 eV
Two Electron Energy:          321.55082319 Eh            8749.84273 eV
Max COSX asymmetry :            0.00000103 Eh               0.00003 eV

Virial components:
Potential Energy   :         -538.96385637 Eh          -14665.95213 eV
Kinetic Energy     :          268.66641153 Eh            7310.78473 eV
Virial Ratio       :            2.00607085


DFT components:
N(Alpha)           :       23.000022558941 electrons
N(Beta)            :       23.000022558941 electrons
N(Total)           :       46.000045117882 electrons
E(X)               :      -29.310229212308 Eh       
E(C)               :       -1.793547514583 Eh       
E(XC)              :      -31.103776726891 Eh       
DFET-embed. en.    :        0.000000000000 Eh       

---------------
SCF CONVERGENCE
---------------

  Last Energy change         ...   -1.0285e-09  Tolerance :   1.0000e-08
  Last MAX-Density change    ...    6.2172e-15  Tolerance :   1.0000e-07
  Last RMS-Density change    ...    9.9158e-17  Tolerance :   5.0000e-09
  Last Orbital Gradient      ...    2.1025e-07  Tolerance :   1.0000e-05
  Last Orbital Rotation      ...    6.1928e-07  Tolerance :   1.0000e-05

             **** THE GBW FILE WAS UPDATED (claisen_ts_QRCF.gbw) ****
             **** DENSITY claisen_ts_QRCF.scfp WAS UPDATED ****
             **** ENERGY FILE WAS UPDATED (claisen_ts_QRCF.en.tmp) ****
             **** THE GBW FILE WAS UPDATED (claisen_ts_QRCF.gbw) ****
             **** DENSITY claisen_ts_QRCF.scfp WAS UPDATED ****
----------------
ORBITAL ENERGIES
----------------

  NO   OCC          E(Eh)            E(eV) 
   0   2.0000     -19.139925      -520.8238 
   1   2.0000     -10.229838      -278.3681 
   2   2.0000     -10.215077      -277.9664 
   3   2.0000     -10.187278      -277.2099 
   4   2.0000     -10.175241      -276.8824 
   5   2.0000     -10.166323      -276.6397 
   6   2.0000      -1.003048       -27.2943 
   7   2.0000      -0.789254       -21.4767 
   8   2.0000      -0.737118       -20.0580 
   9   2.0000      -0.670881       -18.2556 
  10   2.0000      -0.568479       -15.4691 
  11   2.0000      -0.551636       -15.0108 
  12   2.0000      -0.485433       -13.2093 
  13   2.0000      -0.459257       -12.4970 
  14   2.0000      -0.446517       -12.1503 
  15   2.0000      -0.429604       -11.6901 
  16   2.0000      -0.404628       -11.0105 
  17   2.0000      -0.381006       -10.3677 
  18   2.0000      -0.363619        -9.8946 
  19   2.0000      -0.350738        -9.5441 
  20   2.0000      -0.267920        -7.2905 
  21   2.0000      -0.256531        -6.9806 
  22   2.0000      -0.224437        -6.1072 
  23   0.0000      -0.003020        -0.0822 
  24   0.0000       0.023094         0.6284 
  25   0.0000       0.104572         2.8456 
  26   0.0000       0.120215         3.2712 
  27   0.0000       0.121901         3.3171 
  28   0.0000       0.139032         3.7833 
  29   0.0000       0.147963         4.0263 
  30   0.0000       0.171241         4.6597 
  31   0.0000       0.184328         5.0158 
  32   0.0000       0.190994         5.1972 
  33   0.0000       0.202819         5.5190 
  34   0.0000       0.299154         8.1404 
  35   0.0000       0.305107         8.3024 
  36   0.0000       0.349740         9.5169 
  37   0.0000       0.354248         9.6396 
  38   0.0000       0.495871        13.4933 
  39   0.0000       0.521518        14.1912 
  40   0.0000       0.529511        14.4087 
  41   0.0000       0.551695        15.0124 
  42   0.0000       0.564625        15.3642 
  43   0.0000       0.592409        16.1203 
  44   0.0000       0.607148        16.5213 
  45   0.0000       0.621208        16.9039 
  46   0.0000       0.639098        17.3907 
  47   0.0000       0.655151        17.8276 
  48   0.0000       0.671291        18.2668 
  49   0.0000       0.760207        20.6863 
  50   0.0000       0.765579        20.8325 
  51   0.0000       0.824591        22.4383 
  52   0.0000       0.842625        22.9290 
  53   0.0000       0.851606        23.1734 
  54   0.0000       0.860811        23.4239 
  55   0.0000       0.885360        24.0919 
  56   0.0000       0.897354        24.4182 
  57   0.0000       0.911326        24.7985 
  58   0.0000       0.944973        25.7140 
  59   0.0000       0.949181        25.8285 
  60   0.0000       0.988779        26.9060 
  61   0.0000       1.061164        28.8758 
  62   0.0000       1.089163        29.6376 
  63   0.0000       1.175513        31.9873 
  64   0.0000       1.195188        32.5227 
  65   0.0000       1.248606        33.9763 
  66   0.0000       1.269284        34.5390 
  67   0.0000       1.351756        36.7831 
  68   0.0000       1.398512        38.0554 
  69   0.0000       1.452488        39.5242 
  70   0.0000       1.513147        41.1748 
  71   0.0000       1.546215        42.0746 
  72   0.0000       1.582660        43.0664 
  73   0.0000       1.676337        45.6154 
  74   0.0000       1.701821        46.3089 
  75   0.0000       1.748685        47.5841 
  76   0.0000       1.767768        48.1034 
  77   0.0000       1.796189        48.8768 
  78   0.0000       1.886961        51.3468 
  79   0.0000       1.932297        52.5805 
  80   0.0000       1.976941        53.7953 
  81   0.0000       1.998800        54.3901 
  82   0.0000       2.005898        54.5832 
  83   0.0000       2.028840        55.2076 
  84   0.0000       2.129046        57.9343 
  85   0.0000       2.160998        58.8037 
  86   0.0000       2.226825        60.5950 
  87   0.0000       2.259292        61.4785 
  88   0.0000       2.260157        61.5020 
  89   0.0000       2.341353        63.7115 
  90   0.0000       2.367720        64.4289 
  91   0.0000       2.460586        66.9559 
  92   0.0000       2.521353        68.6095 
  93   0.0000       2.596796        70.6624 
  94   0.0000       2.660718        72.4018 
  95   0.0000       2.745961        74.7214 
  96   0.0000       2.777438        75.5779 
  97   0.0000       2.848607        77.5145 
  98   0.0000       2.864322        77.9422 
  99   0.0000       3.003558        81.7310 

                    ********************************
                    * MULLIKEN POPULATION ANALYSIS *
                    ********************************

-----------------------
MULLIKEN ATOMIC CHARGES
-----------------------
   0 C :   -0.332271
   1 C :    0.161340
   2 O :   -0.477191
   3 C :   -0.117411
   4 C :   -0.068346
   5 C :   -0.305682
   6 H :    0.136608
   7 H :    0.149848
   8 H :    0.102381
   9 H :    0.164691
  10 H :    0.153876
  11 H :    0.131104
  12 H :    0.150818
  13 H :    0.150235
Sum of atomic charges:    0.0000000

--------------------------------
MULLIKEN REDUCED ORBITAL CHARGES
--------------------------------
  0 C s       :     3.271056  s :     3.271056
      pz      :     1.021298  p :     3.031838
      px      :     1.000988
      py      :     1.009551
      dz2     :     0.007448  d :     0.029377
      dxz     :     0.004526
      dyz     :     0.006824
      dx2y2   :     0.003758
      dxy     :     0.006821
  1 C s       :     3.113753  s :     3.113753
      pz      :     0.922582  p :     2.656368
      px      :     0.863039
      py      :     0.870747
      dz2     :     0.015592  d :     0.068538
      dxz     :     0.011512
      dyz     :     0.012891
      dx2y2   :     0.013454
      dxy     :     0.015089
  2 O s       :     3.885581  s :     3.885581
      pz      :     1.757632  p :     4.566308
      px      :     1.202544
      py      :     1.606132
      dz2     :     0.003326  d :     0.025301
      dxz     :     0.004378
      dyz     :     0.004788
      dx2y2   :     0.005854
      dxy     :     0.006955
  3 C s       :     3.280270  s :     3.280270
      pz      :     1.038707  p :     2.789556
      px      :     0.736587
      py      :     1.014263
      dz2     :     0.012945  d :     0.047586
      dxz     :     0.005711
      dyz     :     0.007100
      dx2y2   :     0.009958
      dxy     :     0.011872
  4 C s       :     3.155019  s :     3.155019
      pz      :     0.962476  p :     2.878053
      px      :     1.021138
      py      :     0.894439
      dz2     :     0.010821  d :     0.035275
      dxz     :     0.003454
      dyz     :     0.007945
      dx2y2   :     0.006993
      dxy     :     0.006061
  5 C s       :     3.287308  s :     3.287308
      pz      :     1.018653  p :     2.986438
      px      :     0.943098
      py      :     1.024687
      dz2     :     0.009872  d :     0.031936
      dxz     :     0.003576
      dyz     :     0.007017
      dx2y2   :     0.007952
      dxy     :     0.003518
  6 H s       :     0.863392  s :     0.863392
  7 H s       :     0.850152  s :     0.850152
  8 H s       :     0.897619  s :     0.897619
  9 H s       :     0.835309  s :     0.835309
 10 H s       :     0.846124  s :     0.846124
 11 H s       :     0.868896  s :     0.868896
 12 H s       :     0.849182  s :     0.849182
 13 H s       :     0.849765  s :     0.849765


                     *******************************
                     * LOEWDIN POPULATION ANALYSIS *
                     *******************************

----------------------
LOEWDIN ATOMIC CHARGES
----------------------
   0 C :   -0.284968
   1 C :   -0.039607
   2 O :   -0.243114
   3 C :   -0.071853
   4 C :   -0.184635
   5 C :   -0.210885
   6 H :    0.131903
   7 H :    0.136140
   8 H :    0.102553
   9 H :    0.138745
  10 H :    0.129629
  11 H :    0.129255
  12 H :    0.134588
  13 H :    0.132247

-------------------------------
LOEWDIN REDUCED ORBITAL CHARGES
-------------------------------
  0 C s       :     3.002524  s :     3.002524
      pz      :     1.095531  p :     3.219276
      px      :     1.040067
      py      :     1.083678
      dz2     :     0.015277  d :     0.063168
      dxz     :     0.007723
      dyz     :     0.017068
      dx2y2   :     0.009301
      dxy     :     0.013799
  1 C s       :     2.914866  s :     2.914866
      pz      :     1.033806  p :     2.965309
      px      :     0.930888
      py      :     1.000615
      dz2     :     0.033981  d :     0.159433
      dxz     :     0.025883
      dyz     :     0.030957
      dx2y2   :     0.032727
      dxy     :     0.035886
  2 O s       :     3.552664  s :     3.552664
      pz      :     1.772405  p :     4.635137
      px      :     1.242561
      py      :     1.620171
      dz2     :     0.006699  d :     0.055313
      dxz     :     0.010324
      dyz     :     0.007973
      dx2y2   :     0.015073
      dxy     :     0.015243
  3 C s       :     2.980643  s :     2.980643
      pz      :     1.105688  p :     2.993838
      px      :     0.803857
      py      :     1.084293
      dz2     :     0.025489  d :     0.097371
      dxz     :     0.010961
      dyz     :     0.014944
      dx2y2   :     0.021852
      dxy     :     0.024126
  4 C s       :     2.926920  s :     2.926920
      pz      :     1.074730  p :     3.173188
      px      :     1.046498
      py      :     1.051960
      dz2     :     0.023069  d :     0.084527
      dxz     :     0.007305
      dyz     :     0.021506
      dx2y2   :     0.017071
      dxy     :     0.015575
  5 C s       :     2.996676  s :     2.996676
      pz      :     1.090557  p :     3.146792
      px      :     0.963044
      py      :     1.093191
      dz2     :     0.020166  d :     0.067416
      dxz     :     0.007441
      dyz     :     0.016227
      dx2y2   :     0.015410
      dxy     :     0.008172
  6 H s       :     0.868097  s :     0.868097
  7 H s       :     0.863860  s :     0.863860
  8 H s       :     0.897447  s :     0.897447
  9 H s       :     0.861255  s :     0.861255
 10 H s       :     0.870371  s :     0.870371
 11 H s       :     0.870745  s :     0.870745
 12 H s       :     0.865412  s :     0.865412
 13 H s       :     0.867753  s :     0.867753


                      *****************************
                      * MAYER POPULATION ANALYSIS *
                      *****************************

  NA   - Mulliken gross atomic population
  ZA   - Total nuclear charge
  QA   - Mulliken gross atomic charge
  VA   - Mayer's total valence
  BVA  - Mayer's bonded valence
  FA   - Mayer's free valence

  ATOM       NA         ZA         QA         VA         BVA        FA
  0 C      6.3323     6.0000    -0.3323     3.8342     3.8342     0.0000
  1 C      5.8387     6.0000     0.1613     3.9006     3.9006    -0.0000
  2 O      8.4772     8.0000    -0.4772     1.9722     1.9722     0.0000
  3 C      6.1174     6.0000    -0.1174     3.8144     3.8144    -0.0000
  4 C      6.0683     6.0000    -0.0683     3.8769     3.8769    -0.0000
  5 C      6.3057     6.0000    -0.3057     3.8913     3.8913     0.0000
  6 H      0.8634     1.0000     0.1366     0.9430     0.9430     0.0000
  7 H      0.8502     1.0000     0.1498     0.9460     0.9460    -0.0000
  8 H      0.8976     1.0000     0.1024     0.9364     0.9364    -0.0000
  9 H      0.8353     1.0000     0.1647     0.9325     0.9325    -0.0000
 10 H      0.8461     1.0000     0.1539     0.9291     0.9291     0.0000
 11 H      0.8689     1.0000     0.1311     0.9395     0.9395     0.0000
 12 H      0.8492     1.0000     0.1508     0.9389     0.9389    -0.0000
 13 H      0.8498     1.0000     0.1502     0.9430     0.9430     0.0000

  Mayer bond orders larger than 0.100000
B(  0-C ,  1-C ) :   1.7862 B(  0-C ,  5-C ) :   0.1131 B(  0-C ,  6-H ) :   0.9321 
B(  0-C ,  7-H ) :   0.9341 B(  1-C ,  2-O ) :   1.1226 B(  1-C ,  8-H ) :   0.9241 
B(  2-O ,  3-C ) :   0.7372 B(  3-C ,  4-C ) :   1.1150 B(  3-C ,  9-H ) :   0.9391 
B(  3-C , 10-H ) :   0.9297 B(  4-C ,  5-C ) :   1.8105 B(  4-C , 11-H ) :   0.9354 
B(  5-C , 12-H ) :   0.9364 B(  5-C , 13-H ) :   0.9361 

-------
TIMINGS
-------

Total SCF time: 0 days 0 hours 0 min 24 sec 

Total time                  ....      24.333 sec
Sum of individual times     ....      24.228 sec  ( 99.6%)

Fock matrix formation       ....      23.032 sec  ( 94.7%)
  Split-RI-J                ....       1.798 sec  (  7.8% of F)
  Chain of spheres X        ....      16.292 sec  ( 70.7% of F)
  XC integration            ....       4.943 sec  ( 21.5% of F)
    Basis function eval.    ....       2.320 sec  ( 46.9% of XC)
    Density eval.           ....       0.801 sec  ( 16.2% of XC)
    XC-Functional eval.     ....       0.662 sec  ( 13.4% of XC)
    XC-Potential eval.      ....       0.996 sec  ( 20.2% of XC)
Diagonalization             ....       0.008 sec  (  0.0%)
Density matrix formation    ....       0.001 sec  (  0.0%)
Population analysis         ....       0.001 sec  (  0.0%)
Initial guess               ....       0.160 sec  (  0.7%)
Orbital Transformation      ....       0.000 sec  (  0.0%)
Orbital Orthonormalization  ....       0.000 sec  (  0.0%)
DIIS solution               ....       0.002 sec  (  0.0%)
SOSCF solution              ....       0.004 sec  (  0.0%)
Grid generation             ....       1.020 sec  (  4.2%)

Maximum memory used throughout the entire SCF-calculation: 58.0 MB

-------------------------   --------------------
FINAL SINGLE POINT ENERGY      -270.297444843187
-------------------------   --------------------

------------------------------------------------------------------------------
                         ORCA SCF GRADIENT CALCULATION
------------------------------------------------------------------------------

 ... reading COSX grid (gridx3)
Gradient of the Kohn-Sham DFT energy:
Kohn-Sham wavefunction type      ... RKS
Hartree-Fock exchange scaling    ...    0.200
Number of operators              ...    1
Number of atoms                  ...   14
Basis set dimensions             ...  100
Integral neglect threshold       ... 2.5e-11
Integral primitive cutoff        ... 2.5e-12
SHARK Integral package           ... ON

Nuc. rep. gradient       (SHARK) ... done (  0.0 sec)
HCore & Overlap gradient (SHARK) ... done (  0.1 sec)
RI-J gradient            (SHARK) ... done (  0.5 sec)
COSX-gradient                    ... done (  3.5 sec)
Exchange-correlation gradient    ... done

------------------
CARTESIAN GRADIENT
------------------

   1   C   :    0.007545964    0.002077489    0.010020985
   2   C   :   -0.001647377    0.001829284   -0.003733022
   3   O   :   -0.020332907   -0.008813196   -0.004571500
   4   C   :    0.021794869    0.005992523   -0.001120135
   5   C   :    0.000377578    0.005118410    0.003668448
   6   C   :   -0.007507136   -0.007339190   -0.008558788
   7   H   :    0.002223567    0.001497510    0.000581276
   8   H   :    0.003080872    0.000908801   -0.005367079
   9   H   :    0.000277134    0.001415862    0.000610209
  10   H   :   -0.000515577   -0.000728310   -0.000603913
  11   H   :    0.000783540   -0.000242965    0.005837897
  12   H   :   -0.000913990   -0.000127742   -0.000052738
  13   H   :   -0.003298017   -0.000682445   -0.001035959
  14   H   :   -0.001962033   -0.000855334    0.004393226

Difference to translation invariance:
           :   -0.0000935128    0.0000506964    0.0000689073

Difference to rotation invariance:
           :    0.0001999235    0.0003703267   -0.0005892689

Norm of the cartesian gradient     ...    0.0393864604
RMS gradient                       ...    0.0060774628
MAX gradient                       ...    0.0217948693

-------
TIMINGS
-------

Total SCF gradient time            ...        6.779 sec

One electron gradient       ....       0.076 sec  (  1.1%)
RI-J Coulomb gradient       ....       0.453 sec  (  6.7%)
COSX gradient               ....       3.512 sec  ( 51.8%)
XC gradient                 ....       2.483 sec  ( 36.6%)

Maximum memory used throughout the entire SCFGRAD-calculation: 45.5 MB
------------------------------------------------------------------------------
                         ORCA GEOMETRY RELAXATION STEP
------------------------------------------------------------------------------

Reading the OPT-File                    .... done
Getting information on internals        .... done
Copying old internal coords+grads       .... done
Making the new internal coordinates     .... (new redundants).... done
Validating the new internal coordinates .... (new redundants).... done
Calculating the B-matrix                .... done
Calculating the G,G- and P matrices     .... done
Transforming gradient to internals      .... done
Projecting the internal gradient        .... done
Number of atoms                         ....  14
Number of internal coordinates          ....  51
Current Energy                          ....  -270.297444843 Eh
Current gradient norm                   ....     0.039386460 Eh/bohr
Maximum allowed component of the step   ....  0.300
Current trust radius                    ....  0.300
Evaluating the initial hessian          ....  (Almloef) done
Projecting the Hessian                  .... done
Forming the augmented Hessian           .... done
Diagonalizing the augmented Hessian     .... done
Last element of RFO vector              ....  0.877593922
Lowest eigenvalues of augmented Hessian:
 -0.036842390  0.004692220  0.018443753  0.031365157  0.035569217
Length of the computed step             ....  0.546271722
Warning: the length of the step is outside the trust region - taking restricted step instead
The input lambda is                     ....    -0.036842
   iter:   1  x=   -0.063717  g=    7.755011 f(x)=     0.208413
   iter:   2  x=   -0.092146  g=    2.854955 f(x)=     0.081165
   iter:   3  x=   -0.110108  g=    1.374756 f(x)=     0.024693
   iter:   4  x=   -0.114377  g=    0.956689 f(x)=     0.004084
   iter:   5  x=   -0.114554  g=    0.884956 f(x)=     0.000156
   iter:   6  x=   -0.114554  g=    0.882165 f(x)=     0.000000
   iter:   7  x=   -0.114554  g=    0.882161 f(x)=     0.000000
   iter:   8  x=   -0.114554  g=    0.882161 f(x)=     0.000000
The output lambda is                    ....    -0.114554 (8 iterations)
The final length of the internal step   ....  0.300000000
Converting the step to cartesian space:
 Initial RMS(Int)=    0.0420084025
Transforming coordinates:
 Iter   0:  RMS(Cart)=    0.3411531163 RMS(Int)=    0.8765925469
 Iter   1:  RMS(Cart)=    0.0209020485 RMS(Int)=    0.0110653071
 Iter   2:  RMS(Cart)=    0.0048507872 RMS(Int)=    0.0010610934
 Iter   3:  RMS(Cart)=    0.0006180015 RMS(Int)=    0.0003519551
 Iter   4:  RMS(Cart)=    0.0001491641 RMS(Int)=    0.0000419270
 Iter   5:  RMS(Cart)=    0.0000198438 RMS(Int)=    0.0000117895
 Iter   6:  RMS(Cart)=    0.0000048095 RMS(Int)=    0.0000015835
 Iter   7:  RMS(Cart)=    0.0000006658 RMS(Int)=    0.0000004053
 Iter   8:  RMS(Cart)=    0.0000001613 RMS(Int)=    0.0000000599
 Iter   9:  RMS(Cart)=    0.0000000232 RMS(Int)=    0.0000000141
done
Storing new coordinates                 .... done

                                .--------------------.
          ----------------------|Geometry convergence|-------------------------
          Item                value                   Tolerance       Converged
          ---------------------------------------------------------------------
          RMS gradient        0.0131110655            0.0001000000      NO
          MAX gradient        0.0612020031            0.0003000000      NO
          RMS step            0.0420084025            0.0020000000      NO
          MAX step            0.1357505889            0.0040000000      NO
          ........................................................
          Max(Bonds)      0.0147      Max(Angles)    7.39
          Max(Dihed)        7.78      Max(Improp)    0.00
          ---------------------------------------------------------------------

The optimization has not yet converged - more geometry cycles are needed


    ---------------------------------------------------------------------------
                         Redundant Internal Coordinates
                            (Angstroem and degrees)

        Definition                    Value    dE/dq     Step     New-Value
    ----------------------------------------------------------------------------
     1. B(C   1,C   0)                1.3456 -0.000954  0.0006    1.3462   
     2. B(O   2,C   1)                1.3460 -0.001780  0.0012    1.3472   
     3. B(C   3,O   2)                1.6498  0.009172 -0.0147    1.6351   
     4. B(C   4,C   3)                1.4622 -0.005153  0.0046    1.4668   
     5. B(C   5,C   4)                1.3442 -0.003630  0.0022    1.3464   
     6. B(H   6,C   0)                1.0866 -0.000192  0.0002    1.0868   
     7. B(H   7,C   0)                1.0921  0.006161 -0.0069    1.0852   
     8. B(H   8,C   1)                1.0979  0.000177 -0.0002    1.0977   
     9. B(H   9,C   3)                1.0882  0.000568 -0.0006    1.0876   
    10. B(H  10,C   3)                1.1009  0.005856 -0.0067    1.0941   
    11. B(H  11,C   4)                1.0885 -0.000242  0.0003    1.0887   
    12. B(H  12,C   5)                1.0874  0.000044 -0.0000    1.0873   
    13. B(H  13,C   5)                1.0924  0.004843 -0.0054    1.0870   
    14. A(H   6,C   0,H   7)          117.61  0.000109   -0.04    117.57   
    15. A(C   1,C   0,H   6)          121.07  0.001798   -0.24    120.83   
    16. A(C   1,C   0,H   7)          120.97 -0.001606    0.17    121.14   
    17. A(C   0,C   1,H   8)          119.55  0.002110   -0.03    119.52   
    18. A(C   0,C   1,O   2)          123.63 -0.010005    1.20    124.83   
    19. A(O   2,C   1,H   8)          116.10  0.006074   -0.52    115.59   
    20. A(C   1,O   2,C   3)          111.86 -0.061202    7.39    119.26   
    21. A(O   2,C   3,C   4)          107.04 -0.047317    6.56    113.60   
    22. A(C   4,C   3,H  10)          114.84  0.005229   -0.40    114.43   
    23. A(O   2,C   3,H  10)          104.17  0.011259   -0.55    103.63   
    24. A(C   4,C   3,H   9)          117.02  0.011127   -1.84    115.19   
    25. A(O   2,C   3,H   9)           99.97  0.021038   -2.86     97.11   
    26. A(H   9,C   3,H  10)          111.67 -0.003075   -0.45    111.22   
    27. A(C   3,C   4,H  11)          117.29  0.007341   -0.57    116.72   
    28. A(C   5,C   4,H  11)          119.62  0.005517   -0.28    119.34   
    29. A(C   3,C   4,C   5)          119.52 -0.016286    2.03    121.54   
    30. A(H  12,C   5,H  13)          115.68 -0.000062   -0.02    115.66   
    31. A(C   4,C   5,H  13)          121.63 -0.000592    0.05    121.68   
    32. A(C   4,C   5,H  12)          122.46  0.000936   -0.13    122.33   
    33. D(H   8,C   1,C   0,H   6)     -6.68 -0.003777    1.43     -5.25   
    34. D(H   8,C   1,C   0,H   7)   -179.71 -0.006759    2.54   -177.18   
    35. D(O   2,C   1,C   0,H   7)     10.35  0.005339   -2.01      8.33   
    36. D(O   2,C   1,C   0,H   6)   -176.62  0.008322   -3.12   -179.74   
    37. D(C   3,O   2,C   1,H   8)    -89.39 -0.008208    3.33    -86.05   
    38. D(C   3,O   2,C   1,C   0)     80.87 -0.020222    7.78     88.65   
    39. D(H  10,C   3,O   2,C   1)     66.85 -0.003866    0.17     67.02   
    40. D(H   9,C   3,O   2,C   1)   -177.62  0.004020   -1.52   -179.14   
    41. D(C   4,C   3,O   2,C   1)    -55.18  0.007416   -2.29    -57.48   
    42. D(H  11,C   4,C   3,H   9)     24.17 -0.005178    1.58     25.75   
    43. D(H  11,C   4,C   3,O   2)    -86.90 -0.005643    1.72    -85.18   
    44. D(C   5,C   4,C   3,H  10)    -43.37  0.000018    1.62    -41.75   
    45. D(C   5,C   4,C   3,H   9)   -177.21 -0.013692    4.87   -172.34   
    46. D(H  11,C   4,C   3,H  10)    158.01  0.008532   -1.68    156.34   
    47. D(C   5,C   4,C   3,O   2)     71.72 -0.014157    5.01     76.73   
    48. D(H  13,C   5,C   4,H  11)    179.81 -0.004751    1.85    181.66   
    49. D(H  13,C   5,C   4,C   3)     21.69  0.003720   -1.47     20.22   
    50. D(H  12,C   5,C   4,H  11)     -5.86 -0.001199    0.53     -5.34   
    51. D(H  12,C   5,C   4,C   3)   -163.98  0.007272   -2.79   -166.77   
    ----------------------------------------------------------------------------

         *************************************************************
         *                GEOMETRY OPTIMIZATION CYCLE   2            *
         *************************************************************
---------------------------------
CARTESIAN COORDINATES (ANGSTROEM)
---------------------------------
  C     -1.904204    0.601461   -0.385090
  C     -1.418802   -0.482817    0.248149
  O     -0.421457   -1.261107   -0.215118
  C      1.125393   -0.883277    0.156371
  C      1.518176    0.465066   -0.267044
  C      1.130248    1.558250    0.416605
  H     -2.709710    1.186712    0.050558
  H     -1.598235    0.843837   -1.397641
  H     -1.782019   -0.728244    1.254501
  H      1.598416   -1.696393   -0.389396
  H      1.177415   -1.049691    1.236526
  H      1.864965    0.573638   -1.293339
  H      1.228816    2.562545    0.011740
  H      0.802752    1.497993    1.451296

----------------------------
CARTESIAN COORDINATES (A.U.)
----------------------------
  NO LB      ZA    FRAG     MASS         X           Y           Z
   0 C     6.0000    0    12.011   -3.598423    1.136596   -0.727715
   1 C     6.0000    0    12.011   -2.681147   -0.912392    0.468934
   2 O     8.0000    0    15.999   -0.796438   -2.383148   -0.406515
   3 C     6.0000    0    12.011    2.126684   -1.669151    0.295498
   4 C     6.0000    0    12.011    2.868938    0.878847   -0.504640
   5 C     6.0000    0    12.011    2.135858    2.944666    0.787270
   6 H     1.0000    0     1.008   -5.120609    2.242561    0.095540
   7 H     1.0000    0     1.008   -3.020226    1.594620   -2.641159
   8 H     1.0000    0     1.008   -3.367528   -1.376182    2.370664
   9 H     1.0000    0     1.008    3.020568   -3.205717   -0.735853
  10 H     1.0000    0     1.008    2.224991   -1.983628    2.336696
  11 H     1.0000    0     1.008    3.524273    1.084019   -2.444056
  12 H     1.0000    0     1.008    2.322127    4.842509    0.022186
  13 H     1.0000    0     1.008    1.516982    2.830796    2.742552

--------------------------------
INTERNAL COORDINATES (ANGSTROEM)
--------------------------------
 C      0   0   0     0.000000000000     0.00000000     0.00000000
 C      1   0   0     1.346203802471     0.00000000     0.00000000
 O      2   1   0     1.347237776340   124.78299726     0.00000000
 C      3   2   1     1.635085588780   119.25665086    88.64581832
 C      4   3   2     1.466828722367   113.58788506   302.45805788
 C      5   4   3     1.346445883791   121.50713767    76.77755984
 H      1   2   3     1.086806822320   120.82502217   180.25354876
 H      1   2   3     1.085183148175   121.14033098     8.32752564
 H      2   1   3     1.097682146404   119.47373651   174.49993759
 H      4   3   2     1.087552455014    97.16285310   180.90432756
 H      4   3   2     1.094137015406   103.54030731    67.04272034
 H      5   4   3     1.088729238424   116.68394867   274.86788896
 H      6   5   4     1.087308727747   122.32608488   193.22142318
 H      6   5   4     1.086954252433   121.67687499    20.21825390

---------------------------
INTERNAL COORDINATES (A.U.)
---------------------------
 C      0   0   0     0.000000000000     0.00000000     0.00000000
 C      1   0   0     2.543956507114     0.00000000     0.00000000
 O      2   1   0     2.545910434556   124.78299726     0.00000000
 C      3   2   1     3.089863968315   119.25665086    88.64581832
 C      4   3   2     2.771904570643   113.58788506   302.45805788
 C      5   4   3     2.544413974510   121.50713767    76.77755984
 H      1   2   3     2.053767254662   120.82502217   180.25354876
 H      1   2   3     2.050698955198   121.14033098     8.32752564
 H      2   1   3     2.074318638799   119.47373651   174.49993759
 H      4   3   2     2.055176296249    97.16285310   180.90432756
 H      4   3   2     2.067619312104   103.54030731    67.04272034
 H      5   4   3     2.057400094615   116.68394867   274.86788896
 H      6   5   4     2.054715718465   122.32608488   193.22142318
 H      6   5   4     2.054045857199   121.67687499    20.21825390

------------------------------------------------------------------------------
                   ___                                                        
                  /   \      - P O W E R E D   B Y -                         
                 /     \                                                     
                 |  |  |   _    _      __       _____    __    __             
                 |  |  |  | |  | |    /  \     |  _  \  |  |  /  |          
                  \  \/   | |  | |   /    \    | | | |  |  | /  /          
                 / \  \   | |__| |  /  /\  \   | |_| |  |  |/  /          
                |  |  |   |  __  | /  /__\  \  |    /   |      \           
                |  |  |   | |  | | |   __   |  |    \   |  |\   \          
                \     /   | |  | | |  |  |  |  | |\  \  |  | \   \       
                 \___/    |_|  |_| |__|  |__|  |_| \__\ |__|  \__/        
                                                                              
                      - O R C A' S   B I G   F R I E N D -                    
                                      &                                       
                       - I N T E G R A L  F E E D E R -                       
                                                                              
 v1 FN, 2020, v2 2021                                                         
------------------------------------------------------------------------------


Reading SHARK input file claisen_ts_QRCF.SHARKINP.tmp ... ok
----------------------
SHARK INTEGRAL PACKAGE
----------------------

Number of atoms                             ...     14
Number of basis functions                   ...    100
Number of shells                            ...     52
Maximum angular momentum                    ...      2
Integral batch strategy                     ... SHARK/LIBINT Hybrid
RI-J (if used) integral strategy            ... SPLIT-RIJ (Revised 2003 algorithm where possible)
Printlevel                                  ...      1
Contraction scheme used                     ... SEGMENTED contraction
Coulomb Range Separation                    ... NOT USED
Exchange Range Separation                   ... NOT USED
Finite Nucleus Model                        ... NOT USED
Auxiliary Coulomb fitting basis             ... AVAILABLE
   # of basis functions in Aux-J            ...    382
   # of shells in Aux-J                     ...    130
   Maximum angular momentum in Aux-J        ...      4
Auxiliary J/K fitting basis                 ... NOT available
Auxiliary Correlation fitting basis         ... NOT available
Auxiliary 'external' fitting basis          ... NOT available
Integral threshold                          ...     2.500000e-11
Primitive cut-off                           ...     2.500000e-12
Primitive pair pre-selection threshold      ...     2.500000e-12

Calculating pre-screening integrals         ... done (  0.0 sec) Dimension = 52
Organizing shell pair data                  ... done (  0.0 sec)
Shell pair information
Total number of shell pairs                 ...      1378
Shell pairs after pre-screening             ...      1352
Total number of primitive shell pairs       ...      7653
Primitive shell pairs kept                  ...      5228
          la=0 lb=0:    570 shell pairs
          la=1 lb=0:    407 shell pairs
          la=1 lb=1:     78 shell pairs
          la=2 lb=0:    204 shell pairs
          la=2 lb=1:     72 shell pairs
          la=2 lb=2:     21 shell pairs

Calculating one electron integrals          ... done (  0.0 sec)
Calculating RI/J V-Matrix + Cholesky decomp.... done (  0.0 sec)
Calculating Nuclear repulsion               ... done (  0.0 sec) ENN=    222.444476007106 Eh

SHARK setup successfully completed in   0.1 seconds

Maximum memory used throughout the entire GTOINT-calculation: 12.8 MB

Diagonalization of the overlap matrix:
Smallest eigenvalue                        ... 5.396e-03
Time for diagonalization                   ...    0.002 sec
Threshold for overlap eigenvalues          ... 1.000e-08
Number of eigenvalues below threshold      ... 0
Time for construction of square roots      ...    0.000 sec
Total time needed                          ...    0.002 sec

-------------------
DFT GRID GENERATION
-------------------

General Integration Accuracy     IntAcc      ... 4.388
Radial Grid Type                 RadialGrid  ... OptM3 with GC (2021)
Angular Grid (max. ang.)         AngularGrid ... 4 (Lebedev-302)
Angular grid pruning method      GridPruning ... 4 (adaptive)
Weight generation scheme         WeightScheme... Becke
Basis function cutoff            BFCut       ... 1.0000e-11
Integration weight cutoff        WCut        ... 1.0000e-14
Angular grids for H and He will be reduced by one unit
Partially contracted basis set               ... off
Rotationally invariant grid construction     ... off

Total number of grid points                  ...    62180
Total number of batches                      ...      980
Average number of points per batch           ...       63
Average number of grid points per atom       ...     4441
Time for grid setup =    0.439 sec

--------------------
COSX GRID GENERATION
--------------------

GRIDX 1
-------
General Integration Accuracy     IntAcc      ... 3.816
Radial Grid Type                 RadialGrid  ... OptM3 with GC (2021)
Angular Grid (max. ang.)         AngularGrid ... 1 (Lebedev-50)
Angular grid pruning method      GridPruning ... 4 (adaptive)
Weight generation scheme         WeightScheme... Becke
Basis function cutoff            BFCut       ... 1.0000e-11
Integration weight cutoff        WCut        ... 1.0000e-14
Angular grids for H and He will be reduced by one unit
Partially contracted basis set               ... on
Rotationally invariant grid construction     ... off

Total number of grid points                  ...     7977
Total number of batches                      ...      132
Average number of points per batch           ...       60
Average number of grid points per atom       ...      570
UseSFitting                                  ... on

GRIDX 2
-------
General Integration Accuracy     IntAcc      ... 4.020
Radial Grid Type                 RadialGrid  ... OptM3 with GC (2021)
Angular Grid (max. ang.)         AngularGrid ... 2 (Lebedev-110)
Angular grid pruning method      GridPruning ... 4 (adaptive)
Weight generation scheme         WeightScheme... Becke
Basis function cutoff            BFCut       ... 1.0000e-11
Integration weight cutoff        WCut        ... 1.0000e-14
Angular grids for H and He will be reduced by one unit
Partially contracted basis set               ... on
Rotationally invariant grid construction     ... off

Total number of grid points                  ...    17046
Total number of batches                      ...      273
Average number of points per batch           ...       62
Average number of grid points per atom       ...     1218
UseSFitting                                  ... on

GRIDX 3
-------
General Integration Accuracy     IntAcc      ... 4.338
Radial Grid Type                 RadialGrid  ... OptM3 with GC (2021)
Angular Grid (max. ang.)         AngularGrid ... 3 (Lebedev-194)
Angular grid pruning method      GridPruning ... 4 (adaptive)
Weight generation scheme         WeightScheme... Becke
Basis function cutoff            BFCut       ... 1.0000e-11
Integration weight cutoff        WCut        ... 1.0000e-14
Angular grids for H and He will be reduced by one unit
Partially contracted basis set               ... on
Rotationally invariant grid construction     ... off

Total number of grid points                  ...    37402
Total number of batches                      ...      592
Average number of points per batch           ...       63
Average number of grid points per atom       ...     2672
UseSFitting                                  ... on

Time for X-Grid setup             =    0.469 sec

--------------
SCF ITERATIONS
--------------
ITER       Energy         Delta-E        Max-DP      RMS-DP      [F,P]     Damp
               ***  Starting incremental Fock matrix formation  ***
  0   -270.2571932682   0.000000000000 0.01675538  0.00076523  0.0908801 0.7000
  1   -270.2694605513  -0.012267283060 0.01647536  0.00076025  0.0722250 0.7000
                               ***Turning on DIIS***
  2   -270.2794374434  -0.009976892103 0.04434455  0.00208983  0.0545214 0.0000
  3   -270.3053329551  -0.025895511750 0.00597319  0.00034761  0.0079768 0.0000
                      *** Initiating the SOSCF procedure ***
                           *** Shutting down DIIS ***
                      *** Re-Reading the Fockian *** 
                      *** Removing any level shift *** 
ITER      Energy       Delta-E        Grad      Rot      Max-DP    RMS-DP
  4   -270.30590463  -0.0005716712  0.001831  0.001831  0.002434  0.000163
               *** Restarting incremental Fock matrix formation ***
  5   -270.30601458  -0.0001099552  0.000840  0.003603  0.002763  0.000150
  6   -270.30603120  -0.0000166179  0.001111  0.002319  0.002247  0.000107
  7   -270.30604813  -0.0000169334  0.000484  0.001209  0.000791  0.000051
  8   -270.30605193  -0.0000037971  0.000157  0.000475  0.000391  0.000019
  9   -270.30605170   0.0000002292  0.000154  0.000453  0.000231  0.000013
 10   -270.30605234  -0.0000006393  0.000013  0.000050  0.000042  0.000002
 11   -270.30605234   0.0000000023  0.000019  0.000027  0.000030  0.000001
                  ***Gradient check signals convergence***
              ***Rediagonalizing the Fockian in SOSCF/NRSCF***

               *****************************************************
               *                     SUCCESS                       *
               *           SCF CONVERGED AFTER  12 CYCLES          *
               *****************************************************

Old exchange energy                            =     -7.376316839 Eh
New exchange energy                            =     -7.376319684 Eh
Exchange energy change after final integration =     -0.000002845 Eh
Total energy after final integration           =   -270.306055188 Eh
Final COS-X integration done in                =     2.901 sec
Total Energy       :         -270.30605519 Eh           -7355.40170 eV
  Last Energy change         ...   -5.1277e-09  Tolerance :   1.0000e-08
  Last MAX-Density change    ...    2.6645e-15  Tolerance :   1.0000e-07
             **** THE GBW FILE WAS UPDATED (claisen_ts_QRCF.gbw) ****
             **** DENSITY claisen_ts_QRCF.scfp WAS UPDATED ****
             **** ENERGY FILE WAS UPDATED (claisen_ts_QRCF.en.tmp) ****
             **** THE GBW FILE WAS UPDATED (claisen_ts_QRCF.gbw) ****
             **** DENSITY claisen_ts_QRCF.scfp WAS UPDATED ****
Total SCF time: 0 days 0 hours 0 min 22 sec 

Maximum memory used throughout the entire SCF-calculation: 57.6 MB

-------------------------   --------------------
FINAL SINGLE POINT ENERGY      -270.306055187844
-------------------------   --------------------

------------------------------------------------------------------------------
                         ORCA SCF GRADIENT CALCULATION
[...]
     10       0.049226  -0.013851   0.010442   0.000606   0.082795   0.018725
     11      -0.081078  -0.020979  -0.015423   0.001731   0.014330  -0.010673
     12      -0.073740   0.033301  -0.007813   0.004168  -0.005424   0.007815
     13      -0.071680   0.053051   0.024128   0.003537   0.032277   0.027166
     14       0.100941  -0.056926  -0.071884   0.006108   0.027920   0.014776
     15       0.032329  -0.010803   0.010307  -0.002785  -0.004816  -0.000428
     16       0.053779  -0.024881   0.006807  -0.004401  -0.009794  -0.001860
     17      -0.025478   0.053003   0.105296  -0.009648  -0.014584   0.004680
     18      -0.111154  -0.017842  -0.016849  -0.139565  -0.098967   0.413226
     19      -0.020483   0.003201  -0.009957  -0.062978  -0.040373   0.203440
     20      -0.098117  -0.008822  -0.022457  -0.156911  -0.114477   0.467051
     21       0.343349   0.126034  -0.122738  -0.428192  -0.170016   0.475903
     22      -0.085353  -0.032823   0.030644   0.093811   0.054155  -0.194331
     23       0.049920   0.019365  -0.016668  -0.061135   0.001929  -0.045943
     24       0.235253  -0.074318   0.093992   0.799346  -0.142033   0.386848
     25      -0.189364  -0.004321  -0.009201  -0.260813   0.080831  -0.141918
     26      -0.148033  -0.038220   0.028621   0.033379   0.039648  -0.012568
     27      -0.290463   0.356238  -0.285918   0.087060  -0.639894  -0.108945
     28      -0.293840   0.131600  -0.151450   0.037236  -0.364564  -0.121315
     29       0.032180   0.128320  -0.084125   0.044327  -0.142762   0.084783
     30       0.082159  -0.685666   0.264191  -0.103995  -0.389605  -0.012480
     31       0.434832  -0.290916   0.140034  -0.057489  -0.301330  -0.143022
     32      -0.025874  -0.172168   0.044527  -0.020255  -0.108271  -0.031471
     33      -0.117476  -0.183955  -0.291379   0.021266   0.018384  -0.018021
     34      -0.343681  -0.292066  -0.639764   0.050443   0.017448  -0.056813
     35       0.024542  -0.176364  -0.290079   0.022020   0.032417  -0.009578
     36       0.094468  -0.031488   0.006320  -0.006932  -0.005154  -0.022993
     37       0.078087  -0.054361   0.008328  -0.009146  -0.058799  -0.037941
     38       0.236824  -0.132815   0.046405  -0.029870  -0.183442  -0.174542
     39      -0.120588   0.075123   0.187260  -0.024210  -0.111745  -0.076879
     40      -0.169121   0.138648   0.302051  -0.036007  -0.152238  -0.129988
     41      -0.088386   0.096363   0.202316  -0.021308  -0.069353  -0.040097
                 30         31         32         33         34         35    
      0      -0.016204  -0.016251   0.158232   0.286732   0.000472  -0.000145
      1      -0.003863  -0.003002  -0.004406  -0.008282  -0.000194  -0.000002
      2      -0.012880  -0.011722   0.067261   0.121052  -0.000035  -0.000081
      3      -0.016086  -0.006011  -0.193503  -0.356468  -0.002107   0.000744
      4       0.010812   0.010494   0.023415   0.045813  -0.000322  -0.000653
      5       0.007861   0.011589  -0.056940  -0.102815  -0.002256  -0.000967
      6       0.012545   0.018622   0.016876   0.045428   0.002282  -0.000904
      7      -0.008151  -0.008349  -0.007365  -0.005313  -0.000175  -0.000028
      8       0.004133   0.000452   0.005099   0.013345   0.000574  -0.000297
      9       0.040523   0.019720  -0.008910   0.032736   0.002854  -0.046432
     10       0.042772  -0.068218  -0.045742   0.015419  -0.034087   0.053398
     11       0.017490   0.041617  -0.025288   0.009285   0.063932   0.056303
     12      -0.048370   0.008877   0.141790  -0.079877   0.000176   0.000641
     13      -0.084418   0.011336   0.252269  -0.133731   0.001712   0.002254
     14      -0.045666   0.005343   0.218073  -0.119017  -0.001934  -0.004931
     15      -0.008627   0.000195  -0.123505   0.064860  -0.000004   0.000089
     16      -0.011742  -0.000819  -0.202714   0.105655  -0.000120   0.000271
     17      -0.037260   0.002627  -0.229930   0.122265  -0.001223  -0.000293
     18       0.086341   0.050841  -0.022605  -0.033824   0.002724   0.001058
     19       0.047551   0.031533  -0.113370  -0.199989  -0.002400  -0.001110
     20       0.098529   0.062892  -0.164168  -0.293601  -0.000707  -0.000582
     21       0.091239   0.049307  -0.159257  -0.284722  -0.000447  -0.000223
     22      -0.043516  -0.029953   0.125555   0.221815   0.001336   0.000416
     23      -0.012757  -0.010708   0.096208   0.176969   0.000883   0.000237
     24       0.084128   0.045842   0.188077   0.356149   0.010460   0.004444
     25      -0.025538  -0.008955  -0.132185  -0.254194   0.014175   0.004679
     26       0.006985   0.015922  -0.100827  -0.174414   0.027059   0.009191
     27      -0.115337  -0.070318  -0.042243   0.025525  -0.190401   0.512748
     28      -0.015289   0.234733  -0.086879   0.033685   0.247767  -0.702949
     29      -0.095309  -0.656008   0.016468  -0.065842   0.142137  -0.355473
     30      -0.246816  -0.382749   0.048764  -0.160970   0.127331   0.041071
     31      -0.116146   0.569680   0.104534  -0.052184   0.143337   0.061435
     32      -0.054568   0.079913   0.017592  -0.023048  -0.915285  -0.312462
     33       0.106696  -0.022151  -0.146350   0.083798  -0.002609  -0.004370
     34       0.227957   0.000976  -0.311797   0.173550  -0.006805  -0.017591
     35       0.055025  -0.000780   0.077589  -0.042926   0.029986   0.069387
     36       0.103825  -0.002996  -0.035138   0.027164   0.004805  -0.002278
     37       0.108245  -0.019766  -0.146686   0.072069   0.005339  -0.002353
     38       0.643941  -0.075227   0.381226  -0.204198  -0.004840   0.000326
     39       0.271874  -0.041156   0.209462  -0.114340  -0.004658  -0.000667
     40       0.499469  -0.047473   0.405784  -0.206806  -0.006634  -0.000631
     41       0.132069  -0.012446  -0.085390   0.048606   0.014763  -0.002075
                 36         37         38         39         40         41    
      0       0.000750   0.011306  -0.000434  -0.059005   0.000027  -0.035829
      1      -0.000241  -0.003629   0.000091  -0.004772  -0.000048   0.062293
      2       0.000033   0.000181  -0.000113  -0.033771  -0.000073   0.068895
      3       0.001940   0.022338  -0.000209   0.013643   0.000149   0.001766
      4       0.003351   0.042252  -0.000906   0.009729   0.000142   0.004236
      5       0.005411   0.067344  -0.001282   0.019421   0.000254   0.006539
      6      -0.000195  -0.000362  -0.000455   0.000115  -0.000074   0.000584
      7      -0.000012   0.000221  -0.000044  -0.000281  -0.000043  -0.000345
      8       0.000094   0.000301  -0.000248  -0.000250  -0.000111  -0.000151
      9       0.000840   0.000242  -0.001867  -0.000029  -0.000254   0.000125
     10       0.000071  -0.000283   0.003981   0.000082   0.000811  -0.000031
     11      -0.002431   0.003108   0.005875   0.000504   0.001101   0.000051
     12       0.004338  -0.000471  -0.004174   0.000005  -0.000542  -0.000022
     13       0.010399  -0.001111  -0.017604   0.000018  -0.002727  -0.000016
     14      -0.017507   0.002749   0.080778  -0.000181   0.013662  -0.000001
     15      -0.019706   0.001735  -0.002780   0.000053  -0.034888   0.000001
     16      -0.030449   0.002587  -0.002004   0.000050  -0.070567  -0.000023
     17      -0.053584   0.003628  -0.028327   0.000152   0.057939   0.000073
     18      -0.011122  -0.151049   0.003927   0.443279  -0.000787   0.556950
     19       0.008572   0.116697  -0.003066  -0.338404   0.000576  -0.412770
     20       0.006662   0.090957  -0.002419  -0.259729   0.000462  -0.309384
     21      -0.001901  -0.026714   0.000771   0.152242  -0.000076  -0.142008
     22      -0.005400  -0.072856   0.002195   0.399801  -0.000083  -0.335100
     23      -0.008456  -0.112977   0.003568   0.618270  -0.000064  -0.524965
     24      -0.018062  -0.219223   0.004443  -0.055354  -0.000532  -0.018830
     25      -0.041127  -0.508266   0.009111  -0.117938  -0.001777  -0.039313
     26      -0.063863  -0.784084   0.014673  -0.184228  -0.002403  -0.061522
     27      -0.004055  -0.001241   0.027331  -0.001499   0.004135  -0.000309
     28       0.004477  -0.001204  -0.043641   0.000369  -0.006272   0.000235
     29       0.002858  -0.001952  -0.019893  -0.000465  -0.003429   0.000017
     30      -0.005200   0.000414   0.006703   0.000221   0.002879  -0.000517
     31      -0.006280   0.006405   0.007395   0.000816   0.004803   0.000225
     32       0.024922  -0.036712  -0.042705  -0.004806  -0.010753  -0.001101
     33      -0.023140   0.003204   0.076339  -0.000182   0.010884   0.000054
     34      -0.074900   0.010856   0.255285  -0.000476   0.037205   0.000076
     35       0.259471  -0.036526  -0.906286   0.001869  -0.134721  -0.000104
     36       0.269037  -0.022466   0.023822  -0.000461   0.368137   0.000040
     37       0.509711  -0.043719   0.046005  -0.001045   0.693737  -0.000035
     38      -0.135021   0.010978  -0.013435   0.000211  -0.160939  -0.000021
     39      -0.061391   0.003998  -0.023349   0.000115   0.039641   0.000005
     40      -0.193848   0.014147  -0.076686   0.000492   0.135061   0.000246
     41       0.723133  -0.052091   0.292055  -0.001830  -0.554853  -0.000852


-----------
IR SPECTRUM
-----------

 Mode   freq       eps      Int      T**2         TX        TY        TZ
       cm**-1   L/(mol*cm) km/mol    a.u.
----------------------------------------------------------------------------
  6:     38.89   0.000120    0.61  0.000966  ( 0.018217  0.023616 -0.008725)
  7:     87.04   0.000173    0.87  0.000619  ( 0.018498  0.014509 -0.008163)
  8:    115.93   0.000575    2.91  0.001548  ( 0.010517  0.029266 -0.024105)
  9:    286.41   0.000672    3.39  0.000732  (-0.014615 -0.015914  0.016278)
 10:    343.47   0.000884    4.47  0.000803  ( 0.017394  0.022101 -0.003457)
 11:    418.21   0.000317    1.60  0.000237  (-0.014620 -0.004612  0.001250)
 12:    526.51   0.000039    0.20  0.000023  ( 0.003780 -0.000130  0.002975)
 13:    668.27   0.002179   11.01  0.001018  ( 0.022824 -0.021129 -0.007090)
 14:    702.88   0.000376    1.90  0.000167  ( 0.007044  0.007891 -0.007414)
 15:    831.22   0.010086   50.97  0.003787  ( 0.014916  0.047964 -0.035548)
 16:    888.35   0.000884    4.47  0.000311  ( 0.001972  0.006169  0.016388)
 17:    934.59   0.000741    3.74  0.000247  (-0.002209 -0.015567  0.000204)
 18:    956.62   0.007693   38.88  0.002510  ( 0.044603 -0.022699 -0.002222)
 19:    979.16   0.003760   19.00  0.001198  (-0.012253 -0.027853  0.016500)
 20:    997.15   0.000218    1.10  0.000068  ( 0.003538  0.007446 -0.000452)
 21:   1038.48   0.004559   23.04  0.001370  (-0.035006  0.011767 -0.002467)
 22:   1107.25   0.021095  106.61  0.005945  ( 0.070977  0.010035  0.028410)
 23:   1163.81   0.017180   86.82  0.004607  (-0.065969  0.009602 -0.012752)
 24:   1211.15   0.029159  147.36  0.007513  ( 0.086246 -0.007491  0.004301)
 25:   1312.34   0.010845   54.81  0.002579  ( 0.049235 -0.012272  0.002039)
 26:   1328.14   0.002727   13.78  0.000641  (-0.024354  0.006850  0.000810)
 27:   1358.79   0.003036   15.34  0.000697  ( 0.024174 -0.008542 -0.006317)
 28:   1401.61   0.003017   15.25  0.000672  ( 0.017237  0.017600  0.008052)
 29:   1454.14   0.002137   10.80  0.000459  (-0.020908  0.002805 -0.003692)
 30:   1478.67   0.002104   10.63  0.000444  ( 0.012310  0.010345  0.013617)
 31:   1520.29   0.000919    4.65  0.000189  (-0.007110  0.004147 -0.010999)
 32:   1728.84   0.008669   43.81  0.001565  (-0.038593  0.007511 -0.004351)
 33:   1734.12   0.022610  114.26  0.004069  (-0.061522  0.004656 -0.016193)
 34:   3024.66   0.009723   49.13  0.001003  ( 0.013382 -0.017946  0.022404)
 35:   3091.54   0.004527   22.88  0.000457  (-0.012404  0.012867  0.011727)
 36:   3153.62   0.002027   10.24  0.000201  (-0.004133 -0.002301 -0.013348)
 37:   3158.99   0.003463   17.50  0.000342  (-0.003145  0.009621  0.015480)
 38:   3168.28   0.001211    6.12  0.000119  (-0.003766 -0.003520  0.009627)
 39:   3188.91   0.000066    0.33  0.000006  (-0.002185  0.000913  0.000919)
 40:   3237.10   0.003254   16.44  0.000314  (-0.007054 -0.011847  0.011116)
 41:   3275.09   0.001729    8.74  0.000165  (-0.004750  0.007885  0.008946)

* The epsilon (eps) is given for a Dirac delta lineshape.
** The dipole moment derivative (T) already includes vibrational overlap.

The first frequency considered to be a vibration is 6
The total number of vibrations considered is 36


--------------------------
THERMOCHEMISTRY AT 298.15K
--------------------------

Temperature         ... 298.15 K
Pressure            ... 1.00 atm
Total Mass          ... 84.12 AMU

Throughout the following assumptions are being made:
  (1) The electronic state is orbitally nondegenerate
  (2) There are no thermally accessible electronically excited states
  (3) Hindered rotations indicated by low frequency modes are not
      treated as such but are treated as vibrations and this may
      cause some error
  (4) All equations used are the standard statistical mechanics
      equations for an ideal gas
  (5) All vibrations are strictly harmonic

freq.      38.89  E(vib)   ...       0.54 
freq.      87.04  E(vib)   ...       0.48 
freq.     115.93  E(vib)   ...       0.44 
freq.     286.41  E(vib)   ...       0.27 
freq.     343.47  E(vib)   ...       0.23 
freq.     418.21  E(vib)   ...       0.18 
freq.     526.51  E(vib)   ...       0.13 
freq.     668.27  E(vib)   ...       0.08 
freq.     702.88  E(vib)   ...       0.07 
freq.     831.22  E(vib)   ...       0.04 
freq.     888.35  E(vib)   ...       0.04 
freq.     934.59  E(vib)   ...       0.03 
freq.     956.62  E(vib)   ...       0.03 
freq.     979.16  E(vib)   ...       0.03 
freq.     997.15  E(vib)   ...       0.02 
freq.    1038.48  E(vib)   ...       0.02 
freq.    1107.25  E(vib)   ...       0.02 
freq.    1163.81  E(vib)   ...       0.01 
freq.    1211.15  E(vib)   ...       0.01 
freq.    1312.34  E(vib)   ...       0.01 
freq.    1328.14  E(vib)   ...       0.01 
freq.    1358.79  E(vib)   ...       0.01 
freq.    1401.61  E(vib)   ...       0.00 
freq.    1454.14  E(vib)   ...       0.00 
freq.    1478.67  E(vib)   ...       0.00 
freq.    1520.29  E(vib)   ...       0.00 
freq.    1728.84  E(vib)   ...       0.00 
freq.    1734.12  E(vib)   ...       0.00 
freq.    3024.66  E(vib)   ...       0.00 
freq.    3091.54  E(vib)   ...       0.00 
freq.    3153.62  E(vib)   ...       0.00 
freq.    3158.99  E(vib)   ...       0.00 
freq.    3168.28  E(vib)   ...       0.00 
freq.    3188.91  E(vib)   ...       0.00 
freq.    3237.10  E(vib)   ...       0.00 
freq.    3275.09  E(vib)   ...       0.00 

------------
INNER ENERGY
------------

The inner energy is: U= E(el) + E(ZPE) + E(vib) + E(rot) + E(trans)
    E(el)   - is the total energy from the electronic structure calculation
              = E(kin-el) + E(nuc-el) + E(el-el) + E(nuc-nuc)
    E(ZPE)  - the the zero temperature vibrational energy from the frequency calculation
    E(vib)  - the the finite temperature correction to E(ZPE) due to population
              of excited vibrational states
    E(rot)  - is the rotational thermal energy
    E(trans)- is the translational thermal energy

Summary of contributions to the inner energy U:
Electronic energy                ...   -270.33076341 Eh
Zero point energy                ...      0.11826082 Eh      74.21 kcal/mol
Thermal vibrational correction   ...      0.00430583 Eh       2.70 kcal/mol
Thermal rotational correction    ...      0.00141627 Eh       0.89 kcal/mol
Thermal translational correction ...      0.00141627 Eh       0.89 kcal/mol
-----------------------------------------------------------------------
Total thermal energy                   -270.20536422 Eh


Summary of corrections to the electronic energy:
(perhaps to be used in another calculation)
Total thermal correction                  0.00713837 Eh       4.48 kcal/mol
Non-thermal (ZPE) correction              0.11826082 Eh      74.21 kcal/mol
-----------------------------------------------------------------------
Total correction                          0.12539919 Eh      78.69 kcal/mol


--------
ENTHALPY
--------

The enthalpy is H = U + kB*T
                kB is Boltzmann's constant
Total free energy                 ...   -270.20536422 Eh 
Thermal Enthalpy correction       ...      0.00094421 Eh       0.59 kcal/mol
-----------------------------------------------------------------------
Total Enthalpy                    ...   -270.20442001 Eh


Note: Only C1 symmetry has been detected, increase convergence thresholds 
      if your molecule has a higher symmetry. Symmetry factor of 1.0 is   
      used for the rotational entropy correction. 
 

Note: Rotational entropy computed according to Herzberg 
Infrared and Raman Spectra, Chapter V,1, Van Nostrand Reinhold, 1945 
Point Group:  C1, Symmetry Number:   1  
Rotational constants in cm-1:     0.295152     0.061951     0.055297 

Vibrational entropy computed according to the QRRHO of S. Grimme
Chem.Eur.J. 2012 18 9955


-------
ENTROPY
-------

The entropy contributions are T*S = T*(S(el)+S(vib)+S(rot)+S(trans))
     S(el)   - electronic entropy
     S(vib)  - vibrational entropy
     S(rot)  - rotational entropy
     S(trans)- translational entropy
The entropies will be listed as multiplied by the temperature to get
units of energy

Electronic entropy                ...      0.00000000 Eh      0.00 kcal/mol
Vibrational entropy               ...      0.00763026 Eh      4.79 kcal/mol
Rotational entropy                ...      0.01276668 Eh      8.01 kcal/mol
Translational entropy             ...      0.01862630 Eh     11.69 kcal/mol
-----------------------------------------------------------------------
Final entropy term                ...      0.03902324 Eh     24.49 kcal/mol

In case the symmetry of your molecule has not been determined correctly
or in case you have a reason to use a different symmetry number we print 
out the resulting rotational entropy values for sn=1,12 :
 --------------------------------------------------------
|  sn= 1 | S(rot)=       0.01276668 Eh      8.01 kcal/mol|
|  sn= 2 | S(rot)=       0.01211222 Eh      7.60 kcal/mol|
|  sn= 3 | S(rot)=       0.01172939 Eh      7.36 kcal/mol|
|  sn= 4 | S(rot)=       0.01145777 Eh      7.19 kcal/mol|
|  sn= 5 | S(rot)=       0.01124708 Eh      7.06 kcal/mol|
|  sn= 6 | S(rot)=       0.01107493 Eh      6.95 kcal/mol|
|  sn= 7 | S(rot)=       0.01092939 Eh      6.86 kcal/mol|
|  sn= 8 | S(rot)=       0.01080331 Eh      6.78 kcal/mol|
|  sn= 9 | S(rot)=       0.01069210 Eh      6.71 kcal/mol|
|  sn=10 | S(rot)=       0.01059262 Eh      6.65 kcal/mol|
|  sn=11 | S(rot)=       0.01050263 Eh      6.59 kcal/mol|
|  sn=12 | S(rot)=       0.01042048 Eh      6.54 kcal/mol|
 --------------------------------------------------------


-------------------
GIBBS FREE ENERGY
-------------------

The Gibbs free energy is G = H - T*S

Total enthalpy                    ...   -270.20442001 Eh 
Total entropy correction          ...     -0.03902324 Eh    -24.49 kcal/mol
-----------------------------------------------------------------------
Final Gibbs free energy         ...   -270.24344325 Eh

For completeness - the Gibbs free energy minus the electronic energy
G-E(el)                           ...      0.08732016 Eh     54.79 kcal/mol


Timings for individual modules:

Sum of individual times         ...      544.444 sec (=   9.074 min)
GTO integral calculation        ...        1.644 sec (=   0.027 min)   0.3 %
SCF iterations                  ...      350.524 sec (=   5.842 min)  64.4 %
SCF Gradient evaluation         ...       99.421 sec (=   1.657 min)  18.3 %
Geometry relaxation             ...        0.216 sec (=   0.004 min)   0.0 %
Analytical frequency calculation...       92.639 sec (=   1.544 min)  17.0 %
                             ****ORCA TERMINATED NORMALLY****
TOTAL RUN TIME: 0 days 0 hours 9 minutes 4 seconds 822 msec
